<?xml version="1.0" encoding="UTF-8"?>

<!-- generated on 2023-09-20 13:55:42 by Eclipse SUMO GUI Version 1.18.0
<configuration xmlns:xsi="http://www.w3.org/2001/XMLSchema-instance" xsi:noNamespaceSchemaLocation="http://sumo.dlr.de/xsd/sumoConfiguration.xsd">

    <input>
        <net-file value="CDMXrutas1/osm.net.xml.gz"/>
        <route-files value="CDMXrutas1/CDMX%20rutas%201.rou.xml"/>
        <additional-files value="CDMXrutas1/osm.poly.xml.gz"/>
    </input>

    <output>
        <tripinfo-output value="tripinfo.xml"/>
    </output>

    <traci_server>
        <remote-port value="63456"/>
    </traci_server>

</configuration>
-->

<tripinfos xmlns:xsi="http://www.w3.org/2001/XMLSchema-instance" xsi:noNamespaceSchemaLocation="http://sumo.dlr.de/xsd/tripinfo_file.xsd">
    <personinfo id="ped20" depart="12.03" type="ped_pedestrian" speedFactor="1.07">
        <walk depart="13.00" departPos="0.00" arrival="58.00" arrivalPos="54.97" duration="45.00" routeLength="57.98" timeLoss="5.83" maxSpeed="1.48"/>
    </personinfo>
    <tripinfo id="veh3" depart="1.00" departLane="854280395_3" departPos="5.10" departSpeed="0.00" departDelay="0.53" arrival="61.00" arrivalLane="1161202416#2_0" arrivalPos="58.80" arrivalSpeed="15.71" duration="60.00" routeLength="664.58" waitingTime="0.00" waitingCount="0" stopTime="0.00" timeLoss="13.93" rerouteNo="1" devices="tripinfo_veh3 routing_veh3" vType="veh_passenger" speedFactor="0.99" vaporized=""/>
    <tripinfo id="veh109" depart="18.00" departLane="124506586#6_0" departPos="5.10" departSpeed="0.00" departDelay="0.87" arrival="62.00" arrivalLane="904172411#0_0" arrivalPos="3.18" arrivalSpeed="8.67" duration="44.00" routeLength="494.14" waitingTime="0.00" waitingCount="0" stopTime="0.00" timeLoss="9.37" rerouteNo="1" devices="tripinfo_veh109 routing_veh109" vType="veh_passenger" speedFactor="1.06" vaporized=""/>
    <tripinfo id="veh4" depart="1.00" departLane="24858131#2_2" departPos="5.10" departSpeed="0.00" departDelay="0.37" arrival="71.00" arrivalLane="-847324971_0" arrivalPos="52.46" arrivalSpeed="16.51" duration="70.00" routeLength="815.10" waitingTime="0.00" waitingCount="0" stopTime="0.00" timeLoss="20.37" rerouteNo="1" devices="tripinfo_veh4 routing_veh4" vType="veh_passenger" speedFactor="1.22" vaporized=""/>
    <tripinfo id="veh29" depart="5.00" departLane="916017996#1_0" departPos="0.20" departSpeed="0.00" departDelay="0.44" arrival="73.00" arrivalLane="569114956#4_1" arrivalPos="36.55" arrivalSpeed="14.53" duration="68.00" routeLength="844.10" waitingTime="0.00" waitingCount="0" stopTime="0.00" timeLoss="9.93" rerouteNo="1" devices="tripinfo_veh29 routing_veh29" vType="veh_passenger" speedFactor="1.06" vaporized=""/>
    <tripinfo id="veh228" depart="36.00" departLane="24850282#3_0" departPos="5.10" departSpeed="0.00" departDelay="0.17" arrival="76.00" arrivalLane="-24850200#2_0" arrivalPos="86.01" arrivalSpeed="14.05" duration="40.00" routeLength="421.22" waitingTime="0.00" waitingCount="0" stopTime="0.00" timeLoss="9.44" rerouteNo="1" devices="tripinfo_veh228 routing_veh228" vType="veh_passenger" speedFactor="1.02" vaporized=""/>
    <tripinfo id="veh56" depart="9.00" departLane="618043852#2_2" departPos="5.10" departSpeed="0.00" departDelay="0.20" arrival="81.00" arrivalLane="387049360#1_0" arrivalPos="59.07" arrivalSpeed="13.94" duration="72.00" routeLength="713.19" waitingTime="0.00" waitingCount="0" stopTime="0.00" timeLoss="13.01" rerouteNo="1" devices="tripinfo_veh56 routing_veh56" vType="veh_passenger" speedFactor="0.87" vaporized=""/>
    <personinfo id="ped114" depart="68.57" type="ped_pedestrian" speedFactor="1.06">
        <walk depart="69.00" departPos="0.00" arrival="83.00" arrivalPos="13.27" duration="14.00" routeLength="17.97" timeLoss="1.81" maxSpeed="1.47"/>
    </personinfo>
    <tripinfo id="veh129" depart="21.00" departLane="616813097#4_1" departPos="5.10" departSpeed="0.00" departDelay="0.73" arrival="83.00" arrivalLane="866735729_2" arrivalPos="110.36" arrivalSpeed="14.19" duration="62.00" routeLength="645.42" waitingTime="3.00" waitingCount="1" stopTime="0.00" timeLoss="15.67" rerouteNo="1" devices="tripinfo_veh129 routing_veh129" vType="veh_passenger" speedFactor="1.04" vaporized=""/>
    <tripinfo id="veh356" depart="56.00" departLane="904261096#5_1" departPos="0.98" departSpeed="0.00" departDelay="0.05" arrival="88.00" arrivalLane="616812020#0_0" arrivalPos="15.88" arrivalSpeed="14.94" duration="32.00" routeLength="365.85" waitingTime="0.00" waitingCount="0" stopTime="0.00" timeLoss="6.73" rerouteNo="1" devices="tripinfo_veh356 routing_veh356" vType="veh_passenger" speedFactor="1.09" vaporized=""/>
    <tripinfo id="veh13" depart="3.00" departLane="743234928#1_1" departPos="0.20" departSpeed="0.00" departDelay="0.96" arrival="92.00" arrivalLane="517139709#2_1" arrivalPos="69.22" arrivalSpeed="11.94" duration="89.00" routeLength="856.15" waitingTime="0.00" waitingCount="0" stopTime="0.00" timeLoss="19.79" rerouteNo="1" devices="tripinfo_veh13 routing_veh13" vType="veh_passenger" speedFactor="0.94" vaporized=""/>
    <tripinfo id="veh64" depart="11.00" departLane="618043852#5_1" departPos="5.10" departSpeed="0.00" departDelay="0.94" arrival="92.00" arrivalLane="1174904588#1_0" arrivalPos="44.39" arrivalSpeed="12.76" duration="81.00" routeLength="648.87" waitingTime="11.00" waitingCount="1" stopTime="0.00" timeLoss="30.60" rerouteNo="1" devices="tripinfo_veh64 routing_veh64" vType="veh_passenger" speedFactor="0.96" vaporized=""/>
    <tripinfo id="veh63" depart="10.00" departLane="1135303297_1" departPos="5.10" departSpeed="0.00" departDelay="0.10" arrival="96.00" arrivalLane="618043848#7_0" arrivalPos="42.99" arrivalSpeed="14.95" duration="86.00" routeLength="728.51" waitingTime="17.00" waitingCount="2" stopTime="0.00" timeLoss="37.43" rerouteNo="1" devices="tripinfo_veh63 routing_veh63" vType="veh_passenger" speedFactor="1.10" vaporized=""/>
    <tripinfo id="veh70" depart="11.00" departLane="922697092#1_1" departPos="0.20" departSpeed="0.00" departDelay="0.00" arrival="98.00" arrivalLane="569114957#6_0" arrivalPos="0.20" arrivalSpeed="12.72" duration="87.00" routeLength="870.38" waitingTime="0.00" waitingCount="0" stopTime="0.00" timeLoss="17.42" rerouteNo="1" devices="tripinfo_veh70 routing_veh70" vType="veh_passenger" speedFactor="0.93" vaporized=""/>
    <tripinfo id="veh0" depart="0.00" departLane="569114957#2_2" departPos="5.10" departSpeed="0.00" departDelay="0.00" arrival="100.00" arrivalLane="617718993#2_1" arrivalPos="55.32" arrivalSpeed="14.04" duration="100.00" routeLength="1127.19" waitingTime="2.00" waitingCount="1" stopTime="0.00" timeLoss="19.93" rerouteNo="1" devices="tripinfo_veh0 routing_veh0" vType="veh_passenger" speedFactor="1.06" vaporized=""/>
    <tripinfo id="veh290" depart="46.00" departLane="618028619#4_1" departPos="5.10" departSpeed="0.00" departDelay="0.42" arrival="100.00" arrivalLane="24847834_0" arrivalPos="146.72" arrivalSpeed="15.26" duration="54.00" routeLength="435.78" waitingTime="10.00" waitingCount="1" stopTime="0.00" timeLoss="23.88" rerouteNo="1" devices="tripinfo_veh290 routing_veh290" vType="veh_passenger" speedFactor="1.13" vaporized=""/>
    <tripinfo id="veh34" depart="6.00" departLane="24713393_1" departPos="5.10" departSpeed="0.00" departDelay="0.66" arrival="102.00" arrivalLane="866747389#0_0" arrivalPos="190.08" arrivalSpeed="12.61" duration="96.00" routeLength="947.89" waitingTime="5.00" waitingCount="2" stopTime="0.00" timeLoss="22.30" rerouteNo="1" devices="tripinfo_veh34 routing_veh34" vType="veh_passenger" speedFactor="0.94" vaporized=""/>
    <tripinfo id="veh124" depart="20.00" departLane="24850243#2_0" departPos="5.10" departSpeed="0.00" departDelay="0.51" arrival="103.00" arrivalLane="144114924_1" arrivalPos="196.03" arrivalSpeed="15.35" duration="83.00" routeLength="1037.92" waitingTime="0.00" waitingCount="0" stopTime="0.00" timeLoss="15.90" rerouteNo="1" devices="tripinfo_veh124 routing_veh124" vType="veh_passenger" speedFactor="1.16" vaporized=""/>
    <tripinfo id="veh292" depart="46.00" departLane="24715603#1_1" departPos="5.10" departSpeed="0.00" departDelay="0.11" arrival="104.00" arrivalLane="1168774908_0" arrivalPos="208.60" arrivalSpeed="12.91" duration="58.00" routeLength="593.68" waitingTime="0.00" waitingCount="0" stopTime="0.00" timeLoss="9.86" rerouteNo="1" devices="tripinfo_veh292 routing_veh292" vType="veh_passenger" speedFactor="0.93" vaporized=""/>
    <tripinfo id="veh84" depart="14.00" departLane="24858131#3_0" departPos="5.10" departSpeed="0.00" departDelay="0.80" arrival="107.00" arrivalLane="24859096#0_0" arrivalPos="8.19" arrivalSpeed="7.05" duration="93.00" routeLength="1006.47" waitingTime="0.00" waitingCount="0" stopTime="0.00" timeLoss="22.45" rerouteNo="1" devices="tripinfo_veh84 routing_veh84" vType="veh_passenger" speedFactor="1.05" vaporized=""/>
    <tripinfo id="veh144" depart="23.00" departLane="688753795#7_0" departPos="5.10" departSpeed="0.00" departDelay="0.37" arrival="107.00" arrivalLane="4780792#7_1" arrivalPos="81.01" arrivalSpeed="16.26" duration="84.00" routeLength="1132.46" waitingTime="0.00" waitingCount="0" stopTime="0.00" timeLoss="14.39" rerouteNo="1" devices="tripinfo_veh144 routing_veh144" vType="veh_passenger" speedFactor="1.21" vaporized=""/>
    <tripinfo id="veh314" depart="50.00" departLane="24715534#6_0" departPos="5.10" departSpeed="0.00" departDelay="0.65" arrival="107.00" arrivalLane="24715534#11_1" arrivalPos="62.47" arrivalSpeed="13.23" duration="57.00" routeLength="391.61" waitingTime="12.00" waitingCount="2" stopTime="0.00" timeLoss="27.68" rerouteNo="1" devices="tripinfo_veh314 routing_veh314" vType="veh_passenger" speedFactor="0.99" vaporized=""/>
    <tripinfo id="veh236" depart="38.00" departLane="24850811#2_0" departPos="5.10" departSpeed="0.00" departDelay="0.91" arrival="108.00" arrivalLane="24850270#3_0" arrivalPos="191.09" arrivalSpeed="14.65" duration="70.00" routeLength="747.92" waitingTime="0.00" waitingCount="0" stopTime="0.00" timeLoss="20.27" rerouteNo="1" devices="tripinfo_veh236 routing_veh236" vType="veh_passenger" speedFactor="1.11" vaporized=""/>
    <tripinfo id="veh28" depart="5.00" departLane="158032457#3_0" departPos="5.10" departSpeed="0.00" departDelay="0.60" arrival="112.00" arrivalLane="24850282#6_0" arrivalPos="52.60" arrivalSpeed="16.42" duration="107.00" routeLength="1331.15" waitingTime="0.00" waitingCount="0" stopTime="0.00" timeLoss="24.29" rerouteNo="1" devices="tripinfo_veh28 routing_veh28" vType="veh_passenger" speedFactor="1.19" vaporized=""/>
    <tripinfo id="veh167" depart="27.00" departLane="903950051_2" departPos="5.10" departSpeed="0.00" departDelay="0.76" arrival="113.00" arrivalLane="24836098#4_1" arrivalPos="34.64" arrivalSpeed="12.24" duration="86.00" routeLength="854.42" waitingTime="0.00" waitingCount="0" stopTime="0.00" timeLoss="17.98" rerouteNo="1" devices="tripinfo_veh167 routing_veh167" vType="veh_passenger" speedFactor="0.96" vaporized=""/>
    <tripinfo id="veh415" depart="66.00" departLane="24715664#0_1" departPos="5.10" departSpeed="0.00" departDelay="0.78" arrival="114.00" arrivalLane="24715664#6_1" arrivalPos="51.53" arrivalSpeed="12.21" duration="48.00" routeLength="421.53" waitingTime="7.00" waitingCount="1" stopTime="0.00" timeLoss="16.59" rerouteNo="1" devices="tripinfo_veh415 routing_veh415" vType="veh_passenger" speedFactor="0.97" vaporized=""/>
    <tripinfo id="veh421" depart="67.00" departLane="24715534#9_4" departPos="5.10" departSpeed="0.00" departDelay="0.84" arrival="115.00" arrivalLane="688764080#3_0" arrivalPos="23.88" arrivalSpeed="14.63" duration="48.00" routeLength="452.11" waitingTime="2.00" waitingCount="2" stopTime="0.00" timeLoss="18.81" rerouteNo="1" devices="tripinfo_veh421 routing_veh421" vType="veh_passenger" speedFactor="1.14" vaporized=""/>
    <tripinfo id="veh196" depart="31.00" departLane="24703741#3_0" departPos="2.70" departSpeed="0.00" departDelay="0.20" arrival="116.00" arrivalLane="-617718993#1_1" arrivalPos="48.19" arrivalSpeed="11.61" duration="85.00" routeLength="628.28" waitingTime="22.00" waitingCount="1" stopTime="0.00" timeLoss="34.16" rerouteNo="1" devices="tripinfo_veh196 routing_veh196" vType="veh_passenger" speedFactor="0.93" vaporized=""/>
    <tripinfo id="veh27" depart="5.00" departLane="176444016#6_2" departPos="5.10" departSpeed="0.00" departDelay="0.76" arrival="120.00" arrivalLane="617831539#6_2" arrivalPos="83.44" arrivalSpeed="13.07" duration="115.00" routeLength="1333.87" waitingTime="1.00" waitingCount="1" stopTime="0.00" timeLoss="19.26" rerouteNo="1" devices="tripinfo_veh27 routing_veh27" vType="veh_passenger" speedFactor="1.02" vaporized=""/>
    <tripinfo id="veh94" depart="15.00" departLane="932642940_1" departPos="5.10" departSpeed="0.00" departDelay="0.23" arrival="122.00" arrivalLane="688753795#7_0" arrivalPos="26.56" arrivalSpeed="12.97" duration="107.00" routeLength="1134.01" waitingTime="1.00" waitingCount="1" stopTime="0.00" timeLoss="21.11" rerouteNo="1" devices="tripinfo_veh94 routing_veh94" vType="veh_passenger" speedFactor="0.98" vaporized=""/>
    <tripinfo id="veh281" depart="45.00" departLane="616927356#1_2" departPos="0.20" departSpeed="0.00" departDelay="0.84" arrival="123.00" arrivalLane="24836244#0_0" arrivalPos="238.42" arrivalSpeed="12.62" duration="78.00" routeLength="789.75" waitingTime="0.00" waitingCount="0" stopTime="0.00" timeLoss="17.16" rerouteNo="1" devices="tripinfo_veh281 routing_veh281" vType="veh_passenger" speedFactor="0.96" vaporized=""/>
    <tripinfo id="veh432" depart="68.00" departLane="569114957#0_2" departPos="5.10" departSpeed="0.00" departDelay="0.11" arrival="123.00" arrivalLane="569114953#1_1" arrivalPos="0.20" arrivalSpeed="11.29" duration="55.00" routeLength="474.96" waitingTime="2.00" waitingCount="1" stopTime="0.00" timeLoss="18.07" rerouteNo="1" devices="tripinfo_veh432 routing_veh432" vType="veh_passenger" speedFactor="0.94" vaporized=""/>
    <tripinfo id="veh393" depart="62.00" departLane="617831539#1_2" departPos="5.10" departSpeed="0.00" departDelay="0.24" arrival="125.00" arrivalLane="24850888#3_1" arrivalPos="80.61" arrivalSpeed="13.84" duration="63.00" routeLength="718.80" waitingTime="0.00" waitingCount="0" stopTime="0.00" timeLoss="13.85" rerouteNo="1" devices="tripinfo_veh393 routing_veh393" vType="veh_passenger" speedFactor="1.08" vaporized=""/>
    <tripinfo id="veh130" depart="21.00" departLane="1195939076#0_0" departPos="5.10" departSpeed="14.26" departDelay="0.57" arrival="126.00" arrivalLane="1164605692#1_0" arrivalPos="17.63" arrivalSpeed="14.00" duration="105.00" routeLength="1166.63" waitingTime="0.00" waitingCount="0" stopTime="0.00" timeLoss="21.05" rerouteNo="1" devices="tripinfo_veh130 routing_veh130" vType="veh_passenger" speedFactor="1.03" vaporized=""/>
    <tripinfo id="veh260" depart="41.00" departLane="1162729330#2_2" departPos="5.10" departSpeed="0.00" departDelay="0.14" arrival="129.00" arrivalLane="618043858#3_0" arrivalPos="80.27" arrivalSpeed="13.70" duration="88.00" routeLength="1026.58" waitingTime="0.00" waitingCount="0" stopTime="0.00" timeLoss="14.90" rerouteNo="1" devices="tripinfo_veh260 routing_veh260" vType="veh_passenger" speedFactor="1.04" vaporized=""/>
    <tripinfo id="veh148" depart="24.00" departLane="856041979#0_1" departPos="5.10" departSpeed="0.00" departDelay="0.74" arrival="131.00" arrivalLane="24713863#1_1" arrivalPos="113.94" arrivalSpeed="12.53" duration="107.00" routeLength="1273.53" waitingTime="0.00" waitingCount="0" stopTime="0.00" timeLoss="12.44" rerouteNo="1" devices="tripinfo_veh148 routing_veh148" vType="veh_passenger" speedFactor="0.98" vaporized=""/>
    <tripinfo id="veh164" depart="26.00" departLane="904261096#0_1" departPos="5.10" departSpeed="0.00" departDelay="0.23" arrival="131.00" arrivalLane="361358030#8_1" arrivalPos="67.53" arrivalSpeed="12.78" duration="105.00" routeLength="1192.40" waitingTime="0.00" waitingCount="0" stopTime="0.00" timeLoss="14.11" rerouteNo="1" devices="tripinfo_veh164 routing_veh164" vType="veh_passenger" speedFactor="0.97" vaporized=""/>
    <tripinfo id="veh340" depart="54.00" departLane="1161950334#0_2" departPos="0.20" departSpeed="0.00" departDelay="0.57" arrival="131.00" arrivalLane="904172411#1_0" arrivalPos="2.48" arrivalSpeed="10.30" duration="77.00" routeLength="869.34" waitingTime="5.00" waitingCount="1" stopTime="0.00" timeLoss="19.12" rerouteNo="1" devices="tripinfo_veh340 routing_veh340" vType="veh_passenger" speedFactor="1.12" vaporized=""/>
    <tripinfo id="veh22" depart="4.00" departLane="1162729330#1_1" departPos="5.10" departSpeed="0.00" departDelay="0.54" arrival="132.00" arrivalLane="24836247#1_1" arrivalPos="171.82" arrivalSpeed="14.08" duration="128.00" routeLength="1383.49" waitingTime="1.00" waitingCount="1" stopTime="0.00" timeLoss="30.08" rerouteNo="1" devices="tripinfo_veh22 routing_veh22" vType="veh_passenger" speedFactor="1.04" vaporized=""/>
    <tripinfo id="veh419" depart="66.00" departLane="24850149#0_1" departPos="5.10" departSpeed="0.00" departDelay="0.15" arrival="132.00" arrivalLane="4818253#2_1" arrivalPos="74.43" arrivalSpeed="11.38" duration="66.00" routeLength="650.48" waitingTime="1.00" waitingCount="1" stopTime="0.00" timeLoss="13.15" rerouteNo="1" devices="tripinfo_veh419 routing_veh419" vType="veh_passenger" speedFactor="0.91" vaporized=""/>
    <tripinfo id="veh439" depart="69.00" departLane="24836323#2_1" departPos="5.10" departSpeed="0.00" departDelay="0.01" arrival="132.00" arrivalLane="618028619#4_1" arrivalPos="95.03" arrivalSpeed="13.11" duration="63.00" routeLength="693.74" waitingTime="0.00" waitingCount="0" stopTime="0.00" timeLoss="11.82" rerouteNo="1" devices="tripinfo_veh439 routing_veh439" vType="veh_passenger" speedFactor="1.01" vaporized=""/>
    <tripinfo id="veh466" depart="74.00" departLane="867017412#1_0" departPos="5.10" departSpeed="0.00" departDelay="0.77" arrival="135.00" arrivalLane="24857826#2_0" arrivalPos="61.32" arrivalSpeed="14.22" duration="61.00" routeLength="644.57" waitingTime="0.00" waitingCount="0" stopTime="0.00" timeLoss="15.92" rerouteNo="1" devices="tripinfo_veh466 routing_veh466" vType="veh_passenger" speedFactor="1.08" vaporized=""/>
    <tripinfo id="veh169" depart="27.00" departLane="617887678#0_1" departPos="5.10" departSpeed="0.00" departDelay="0.44" arrival="138.00" arrivalLane="24846907#15_1" arrivalPos="245.96" arrivalSpeed="12.94" duration="111.00" routeLength="1237.72" waitingTime="0.00" waitingCount="0" stopTime="0.00" timeLoss="13.83" rerouteNo="1" devices="tripinfo_veh169 routing_veh169" vType="veh_passenger" speedFactor="0.94" vaporized=""/>
    <tripinfo id="veh276" depart="44.00" departLane="854269187#0_0" departPos="5.10" departSpeed="0.00" departDelay="0.63" arrival="139.00" arrivalLane="24715534#7_0" arrivalPos="103.12" arrivalSpeed="13.88" duration="95.00" routeLength="1084.16" waitingTime="0.00" waitingCount="0" stopTime="0.00" timeLoss="20.72" rerouteNo="1" devices="tripinfo_veh276 routing_veh276" vType="veh_passenger" speedFactor="1.08" vaporized=""/>
    <tripinfo id="veh72" depart="12.00" departLane="1168452026#1_2" departPos="5.10" departSpeed="0.00" departDelay="0.68" arrival="140.00" arrivalLane="24715534#10_1" arrivalPos="31.30" arrivalSpeed="7.83" duration="128.00" routeLength="1052.17" waitingTime="11.00" waitingCount="3" stopTime="0.00" timeLoss="40.03" rerouteNo="1" devices="tripinfo_veh72 routing_veh72" vType="veh_passenger" speedFactor="0.89" vaporized=""/>
    <tripinfo id="veh73" depart="12.00" departLane="24849974#5_1" departPos="5.10" departSpeed="0.00" departDelay="0.53" arrival="141.00" arrivalLane="4818253#3_1" arrivalPos="60.39" arrivalSpeed="16.99" duration="129.00" routeLength="948.45" waitingTime="38.00" waitingCount="2" stopTime="0.00" timeLoss="67.91" rerouteNo="1" devices="tripinfo_veh73 routing_veh73" vType="veh_passenger" speedFactor="1.24" vaporized=""/>
    <tripinfo id="veh233" depart="37.00" departLane="24714067#2_1" departPos="5.10" departSpeed="0.00" departDelay="0.38" arrival="142.00" arrivalLane="24715388_1" arrivalPos="74.87" arrivalSpeed="13.80" duration="105.00" routeLength="795.34" waitingTime="15.00" waitingCount="3" stopTime="0.00" timeLoss="46.06" rerouteNo="1" devices="tripinfo_veh233 routing_veh233" vType="veh_passenger" speedFactor="1.02" vaporized=""/>
    <tripinfo id="veh304" depart="48.00" departLane="846008894#6_0" departPos="5.10" departSpeed="0.00" departDelay="0.22" arrival="142.00" arrivalLane="24936670_0" arrivalPos="347.03" arrivalSpeed="14.97" duration="94.00" routeLength="1068.96" waitingTime="6.00" waitingCount="1" stopTime="0.00" timeLoss="22.81" rerouteNo="1" devices="tripinfo_veh304 routing_veh304" vType="veh_passenger" speedFactor="1.11" vaporized=""/>
    <tripinfo id="veh152" depart="24.00" departLane="846008894#1_0" departPos="5.10" departSpeed="0.00" departDelay="0.11" arrival="143.00" arrivalLane="904259094_1" arrivalPos="246.51" arrivalSpeed="14.94" duration="119.00" routeLength="1619.73" waitingTime="0.00" waitingCount="0" stopTime="0.00" timeLoss="12.88" rerouteNo="1" devices="tripinfo_veh152 routing_veh152" vType="veh_passenger" speedFactor="1.11" vaporized=""/>
    <tripinfo id="veh249" depart="40.00" departLane="616812019#2_0" departPos="5.10" departSpeed="0.00" departDelay="0.87" arrival="143.00" arrivalLane="618045930#2_3" arrivalPos="57.12" arrivalSpeed="7.89" duration="103.00" routeLength="782.66" waitingTime="12.00" waitingCount="3" stopTime="0.00" timeLoss="42.02" rerouteNo="1" devices="tripinfo_veh249 routing_veh249" vType="veh_passenger" speedFactor="0.96" vaporized=""/>
    <tripinfo id="veh345" depart="55.00" departLane="24859094#2_1" departPos="5.10" departSpeed="0.00" departDelay="0.78" arrival="144.00" arrivalLane="569114962#2_1" arrivalPos="2.63" arrivalSpeed="8.90" duration="89.00" routeLength="949.75" waitingTime="1.00" waitingCount="1" stopTime="0.00" timeLoss="18.96" rerouteNo="1" devices="tripinfo_veh345 routing_veh345" vType="veh_passenger" speedFactor="1.01" vaporized=""/>
    <tripinfo id="veh524" depart="84.00" departLane="617719001#1_0" departPos="5.10" departSpeed="0.00" departDelay="1.65" arrival="145.00" arrivalLane="904255515_0" arrivalPos="204.00" arrivalSpeed="12.35" duration="61.00" routeLength="516.03" waitingTime="1.00" waitingCount="1" stopTime="0.00" timeLoss="19.32" rerouteNo="1" devices="tripinfo_veh524 routing_veh524" vType="veh_passenger" speedFactor="0.95" vaporized=""/>
    <tripinfo id="veh420" depart="67.00" departLane="569114957#2_2" departPos="5.10" departSpeed="0.00" departDelay="0.99" arrival="146.00" arrivalLane="24858164#1_2" arrivalPos="29.34" arrivalSpeed="13.17" duration="79.00" routeLength="933.27" waitingTime="0.00" waitingCount="0" stopTime="0.00" timeLoss="11.40" rerouteNo="1" devices="tripinfo_veh420 routing_veh420" vType="veh_passenger" speedFactor="1.01" vaporized=""/>
    <tripinfo id="veh517" depart="82.00" departLane="688753795#4_2" departPos="5.10" departSpeed="0.00" departDelay="0.75" arrival="146.00" arrivalLane="1161952787#1_1" arrivalPos="95.33" arrivalSpeed="14.01" duration="64.00" routeLength="778.60" waitingTime="0.00" waitingCount="0" stopTime="0.00" timeLoss="12.07" rerouteNo="1" devices="tripinfo_veh517 routing_veh517" vType="veh_passenger" speedFactor="1.01" vaporized=""/>
    <tripinfo id="veh208" depart="33.00" departLane="616921713#1_3" departPos="5.10" departSpeed="0.00" departDelay="0.31" arrival="147.00" arrivalLane="916017996#1_0" arrivalPos="0.20" arrivalSpeed="12.72" duration="114.00" routeLength="1103.02" waitingTime="4.00" waitingCount="1" stopTime="0.00" timeLoss="27.20" rerouteNo="1" devices="tripinfo_veh208 routing_veh208" vType="veh_passenger" speedFactor="0.94" vaporized=""/>
    <tripinfo id="veh275" depart="44.00" departLane="688753795#3_2" departPos="5.10" departSpeed="0.00" departDelay="0.78" arrival="148.00" arrivalLane="1161202416#2_0" arrivalPos="58.80" arrivalSpeed="13.61" duration="104.00" routeLength="1200.01" waitingTime="2.00" waitingCount="1" stopTime="0.00" timeLoss="13.15" rerouteNo="1" devices="tripinfo_veh275 routing_veh275" vType="veh_passenger" speedFactor="0.84" vaporized=""/>
    <tripinfo id="veh316" depart="50.00" departLane="24858698#4_1" departPos="5.10" departSpeed="0.00" departDelay="0.34" arrival="148.00" arrivalLane="845518111#1_2" arrivalPos="0.20" arrivalSpeed="13.46" duration="98.00" routeLength="1058.63" waitingTime="0.00" waitingCount="0" stopTime="0.00" timeLoss="20.15" rerouteNo="1" devices="tripinfo_veh316 routing_veh316" vType="veh_passenger" speedFactor="1.01" vaporized=""/>
    <tripinfo id="veh363" depart="58.00" departLane="1168452026#1_1" departPos="5.10" departSpeed="0.00" departDelay="0.95" arrival="149.00" arrivalLane="904258813#0_0" arrivalPos="93.06" arrivalSpeed="17.45" duration="91.00" routeLength="883.47" waitingTime="16.00" waitingCount="2" stopTime="0.00" timeLoss="32.30" rerouteNo="1" devices="tripinfo_veh363 routing_veh363" vType="veh_passenger" speedFactor="1.08" vaporized=""/>
    <tripinfo id="veh6" depart="1.00" departLane="-618053641_0" departPos="5.10" departSpeed="0.00" departDelay="0.06" arrival="151.00" arrivalLane="24703741#6_1" arrivalPos="0.20" arrivalSpeed="4.99" duration="150.00" routeLength="1392.84" waitingTime="0.00" waitingCount="0" stopTime="0.00" timeLoss="27.61" rerouteNo="1" devices="tripinfo_veh6 routing_veh6" vType="veh_passenger" speedFactor="0.86" vaporized=""/>
    <tripinfo id="veh160" depart="26.00" departLane="24859094#4_1" departPos="5.10" departSpeed="0.00" departDelay="0.86" arrival="152.00" arrivalLane="24836611_0" arrivalPos="56.79" arrivalSpeed="14.44" duration="126.00" routeLength="1124.61" waitingTime="18.00" waitingCount="1" stopTime="0.00" timeLoss="44.43" rerouteNo="1" devices="tripinfo_veh160 routing_veh160" vType="veh_passenger" speedFactor="1.05" vaporized=""/>
    <tripinfo id="veh366" depart="58.00" departLane="432046500#2_3" departPos="5.10" departSpeed="0.00" departDelay="0.48" arrival="152.00" arrivalLane="1161952787#1_1" arrivalPos="95.33" arrivalSpeed="12.86" duration="94.00" routeLength="1081.85" waitingTime="0.00" waitingCount="0" stopTime="0.00" timeLoss="16.71" rerouteNo="1" devices="tripinfo_veh366 routing_veh366" vType="veh_passenger" speedFactor="1.01" vaporized=""/>
    <tripinfo id="veh171" depart="27.00" departLane="24850668#3_0" departPos="5.10" departSpeed="0.00" departDelay="0.13" arrival="155.00" arrivalLane="4780792#13_2" arrivalPos="88.23" arrivalSpeed="12.40" duration="128.00" routeLength="1406.24" waitingTime="0.00" waitingCount="0" stopTime="0.00" timeLoss="17.72" rerouteNo="1" devices="tripinfo_veh171 routing_veh171" vType="veh_passenger" speedFactor="0.93" vaporized=""/>
    <tripinfo id="veh347" depart="60.00" departLane="4818259#0_1" departPos="5.10" departSpeed="0.00" departDelay="5.47" arrival="155.00" arrivalLane="569114956#1_1" arrivalPos="34.92" arrivalSpeed="13.08" duration="95.00" routeLength="976.28" waitingTime="0.00" waitingCount="0" stopTime="0.00" timeLoss="18.53" rerouteNo="1" devices="tripinfo_veh347 routing_veh347" vType="veh_passenger" speedFactor="0.94" vaporized=""/>
    <tripinfo id="veh501" depart="79.00" departLane="859448270#0_1" departPos="5.10" departSpeed="0.00" departDelay="0.27" arrival="155.00" arrivalLane="1150556474_0" arrivalPos="1.84" arrivalSpeed="11.93" duration="76.00" routeLength="767.61" waitingTime="9.00" waitingCount="1" stopTime="0.00" timeLoss="24.35" rerouteNo="1" devices="tripinfo_veh501 routing_veh501" vType="veh_passenger" speedFactor="1.08" vaporized=""/>
    <tripinfo id="veh133" depart="21.00" departLane="617718973#5_2" departPos="5.10" departSpeed="0.00" departDelay="0.10" arrival="156.00" arrivalLane="24703903#3_1" arrivalPos="89.42" arrivalSpeed="13.33" duration="135.00" routeLength="1388.22" waitingTime="0.00" waitingCount="0" stopTime="0.00" timeLoss="30.43" rerouteNo="1" devices="tripinfo_veh133 routing_veh133" vType="veh_passenger" speedFactor="0.98" vaporized=""/>
    <tripinfo id="veh487" depart="77.00" departLane="24715603#0_1" departPos="5.10" departSpeed="0.00" departDelay="0.47" arrival="156.00" arrivalLane="187679421#3_1" arrivalPos="20.70" arrivalSpeed="15.95" duration="79.00" routeLength="751.75" waitingTime="6.00" waitingCount="1" stopTime="0.00" timeLoss="32.81" rerouteNo="1" devices="tripinfo_veh487 routing_veh487" vType="veh_passenger" speedFactor="1.23" vaporized=""/>
    <tripinfo id="veh126" depart="20.00" departLane="569114952#1_1" departPos="0.20" departSpeed="0.00" departDelay="0.20" arrival="157.00" arrivalLane="916017996#0_0" arrivalPos="0.20" arrivalSpeed="11.81" duration="137.00" routeLength="656.53" waitingTime="66.00" waitingCount="3" stopTime="0.00" timeLoss="83.17" rerouteNo="1" devices="tripinfo_veh126 routing_veh126" vType="veh_passenger" speedFactor="0.90" vaporized=""/>
    <tripinfo id="veh155" depart="25.00" departLane="24847791#1_0" departPos="5.10" departSpeed="0.00" departDelay="0.64" arrival="157.00" arrivalLane="866465092_1" arrivalPos="71.66" arrivalSpeed="13.94" duration="132.00" routeLength="1285.28" waitingTime="13.00" waitingCount="3" stopTime="0.00" timeLoss="41.57" rerouteNo="1" devices="tripinfo_veh155 routing_veh155" vType="veh_passenger" speedFactor="1.03" vaporized=""/>
    <tripinfo id="veh269" depart="43.00" departLane="616928405#1_2" departPos="0.20" departSpeed="0.00" departDelay="0.73" arrival="157.00" arrivalLane="24858615#1_1" arrivalPos="20.00" arrivalSpeed="15.80" duration="114.00" routeLength="1193.44" waitingTime="0.00" waitingCount="0" stopTime="0.00" timeLoss="37.71" rerouteNo="1" devices="tripinfo_veh269 routing_veh269" vType="veh_passenger" speedFactor="1.18" vaporized=""/>