<?xml version="1.0" encoding="UTF-8"?>

<!-- generated on 2023-09-25 10:42:18 by Eclipse SUMO GUI Version 1.18.0
<configuration xmlns:xsi="http://www.w3.org/2001/XMLSchema-instance" xsi:noNamespaceSchemaLocation="http://sumo.dlr.de/xsd/sumoConfiguration.xsd">

    <input>
        <net-file value="CDMXrutas1/osm.net.xml.gz"/>
        <route-files value="CDMXrutas1/CDMX%20rutas%201.rou.xml"/>
        <additional-files value="CDMXrutas1/osm.poly.xml.gz"/>
    </input>

    <output>
        <tripinfo-output value="tripinfo.xml"/>
    </output>

    <traci_server>
        <remote-port value="63865"/>
    </traci_server>

</configuration>
-->

<tripinfos xmlns:xsi="http://www.w3.org/2001/XMLSchema-instance" xsi:noNamespaceSchemaLocation="http://sumo.dlr.de/xsd/tripinfo_file.xsd">
</tripinfos>
