<?xml version="1.0" encoding="UTF-8"?>

<!-- generated on 2024-12-01 21:27:08 by Eclipse SUMO GUI Version v1_21_0+1083-291fe701fec
<sumoConfiguration xmlns:xsi="http://www.w3.org/2001/XMLSchema-instance" xsi:noNamespaceSchemaLocation="http://sumo.dlr.de/xsd/sumoConfiguration.xsd">

    <input>
        <net-file value="osm.net.xml.gz"/>
        <route-files value="ejbloqueo.rou.xml"/>
        <additional-files value="closededges.add.xml"/>
    </input>

    <output>
        <tripinfo-output value="tripinfo.xml"/>
    </output>

    <processing>
        <ignore-route-errors value="true"/>
        <time-to-teleport value="-1"/>
    </processing>

    <traci_server>
        <remote-port value="60547"/>
    </traci_server>

</sumoConfiguration>
-->

<tripinfos xmlns:xsi="http://www.w3.org/2001/XMLSchema-instance" xsi:noNamespaceSchemaLocation="http://sumo.dlr.de/xsd/tripinfo_file.xsd">
    <tripinfo id="veh51" depart="3.00" departLane="24684794#4_0" departPos="5.10" departSpeed="0.00" departDelay="0.44" arrival="46.00" arrivalLane="569385806#0_0" arrivalPos="44.35" arrivalSpeed="11.71" duration="43.00" routeLength="376.39" waitingTime="0.00" waitingCount="0" stopTime="0.00" timeLoss="10.02" rerouteNo="1" devices="tripinfo_veh51 routing_veh51" vType="veh_passenger" speedFactor="0.85" vaporized=""/>
    <tripinfo id="veh209" depart="11.00" departLane="1243625022#0_3" departPos="5.10" departSpeed="0.00" departDelay="0.51" arrival="51.00" arrivalLane="616934815#0_3" arrivalPos="34.45" arrivalSpeed="14.11" duration="40.00" routeLength="418.14" waitingTime="0.00" waitingCount="0" stopTime="0.00" timeLoss="10.23" rerouteNo="1" devices="tripinfo_veh209 routing_veh209" vType="veh_passenger" speedFactor="1.02" vaporized=""/>
    <tripinfo id="veh52" depart="6.00" departLane="618106730#3_1" departPos="5.10" departSpeed="0.00" departDelay="3.39" arrival="62.00" arrivalLane="24859099#1_1" arrivalPos="26.25" arrivalSpeed="12.95" duration="56.00" routeLength="570.77" waitingTime="0.00" waitingCount="0" stopTime="0.00" timeLoss="17.77" rerouteNo="1" devices="tripinfo_veh52 routing_veh52" vType="veh_passenger" speedFactor="1.17" vaporized=""/>
    <tripinfo id="veh71" depart="4.00" departLane="24858615#2_1" departPos="5.10" departSpeed="0.00" departDelay="0.44" arrival="75.00" arrivalLane="130848192#8_1" arrivalPos="25.58" arrivalSpeed="13.02" duration="71.00" routeLength="628.01" waitingTime="7.00" waitingCount="1" stopTime="0.00" timeLoss="25.75" rerouteNo="1" devices="tripinfo_veh71 routing_veh71" vType="veh_passenger" speedFactor="1.02" vaporized=""/>
    <tripinfo id="veh373" depart="19.00" departLane="908485637#2_1" departPos="5.10" departSpeed="0.00" departDelay="0.28" arrival="81.00" arrivalLane="609012757#1_1" arrivalPos="0.76" arrivalSpeed="7.13" duration="62.00" routeLength="512.95" waitingTime="14.00" waitingCount="2" stopTime="0.00" timeLoss="28.03" rerouteNo="1" devices="tripinfo_veh373 routing_veh373" vType="veh_passenger" speedFactor="1.12" vaporized=""/>
    <tripinfo id="veh458" depart="23.00" departLane="569404312#2_1" departPos="5.10" departSpeed="0.00" departDelay="0.01" arrival="81.00" arrivalLane="24703691#1_2" arrivalPos="41.02" arrivalSpeed="15.16" duration="58.00" routeLength="706.70" waitingTime="1.00" waitingCount="1" stopTime="0.00" timeLoss="12.27" rerouteNo="1" devices="tripinfo_veh458 routing_veh458" vType="veh_passenger" speedFactor="1.12" vaporized=""/>
    <tripinfo id="veh436" depart="22.00" departLane="226529202#1_1" departPos="5.10" departSpeed="0.00" departDelay="0.11" arrival="86.00" arrivalLane="226529202#14_1" arrivalPos="72.81" arrivalSpeed="13.99" duration="64.00" routeLength="836.14" waitingTime="0.00" waitingCount="0" stopTime="0.00" timeLoss="5.70" rerouteNo="1" devices="tripinfo_veh436 routing_veh436" vType="veh_passenger" speedFactor="1.05" vaporized=""/>
    <tripinfo id="veh221" depart="12.00" departLane="617638517#11_1" departPos="5.10" departSpeed="0.00" departDelay="0.91" arrival="88.00" arrivalLane="25154589#3_2" arrivalPos="12.20" arrivalSpeed="12.80" duration="76.00" routeLength="654.79" waitingTime="10.00" waitingCount="1" stopTime="0.00" timeLoss="26.68" rerouteNo="1" devices="tripinfo_veh221 routing_veh221" vType="veh_passenger" speedFactor="0.97" vaporized=""/>
    <tripinfo id="veh0" depart="0.00" departLane="569385799#2_2" departPos="5.10" departSpeed="0.00" departDelay="0.00" arrival="96.00" arrivalLane="-25154495#1_0" arrivalPos="29.72" arrivalSpeed="13.52" duration="96.00" routeLength="990.86" waitingTime="4.00" waitingCount="2" stopTime="0.00" timeLoss="27.40" rerouteNo="1" devices="tripinfo_veh0 routing_veh0" vType="veh_passenger" speedFactor="1.06" vaporized=""/>
    <tripinfo id="veh882" depart="45.00" departLane="904258813#0_2" departPos="5.10" departSpeed="0.00" departDelay="0.72" arrival="98.00" arrivalLane="664037885#1_3" arrivalPos="91.89" arrivalSpeed="15.04" duration="53.00" routeLength="474.74" waitingTime="9.00" waitingCount="1" stopTime="0.00" timeLoss="24.15" rerouteNo="1" devices="tripinfo_veh882 routing_veh882" vType="veh_passenger" speedFactor="1.17" vaporized=""/>
    <tripinfo id="veh139" depart="7.00" departLane="569384314#0_0" departPos="5.10" departSpeed="0.00" departDelay="0.02" arrival="100.00" arrivalLane="24684745#7_2" arrivalPos="28.91" arrivalSpeed="15.13" duration="93.00" routeLength="765.43" waitingTime="21.00" waitingCount="2" stopTime="0.00" timeLoss="41.56" rerouteNo="1" devices="tripinfo_veh139 routing_veh139" vType="veh_passenger" speedFactor="1.12" vaporized=""/>
    <tripinfo id="veh406" depart="21.00" departLane="654836788#2_1" departPos="5.10" departSpeed="0.00" departDelay="0.62" arrival="100.00" arrivalLane="24847390#4_2" arrivalPos="25.11" arrivalSpeed="17.47" duration="79.00" routeLength="925.30" waitingTime="0.00" waitingCount="0" stopTime="0.00" timeLoss="23.91" rerouteNo="1" devices="tripinfo_veh406 routing_veh406" vType="veh_passenger" speedFactor="1.26" vaporized=""/>
    <tripinfo id="veh570" depart="29.00" departLane="1180581570_1" departPos="5.10" departSpeed="0.00" departDelay="0.39" arrival="101.00" arrivalLane="24684984#11_0" arrivalPos="44.42" arrivalSpeed="13.39" duration="72.00" routeLength="687.86" waitingTime="8.00" waitingCount="1" stopTime="0.00" timeLoss="21.75" rerouteNo="1" devices="tripinfo_veh570 routing_veh570" vType="veh_passenger" speedFactor="0.99" vaporized=""/>
    <tripinfo id="veh111" depart="6.00" departLane="25154577#7_1" departPos="5.10" departSpeed="0.00" departDelay="0.43" arrival="107.00" arrivalLane="845528493#11_0" arrivalPos="41.78" arrivalSpeed="14.34" duration="101.00" routeLength="1068.93" waitingTime="2.00" waitingCount="2" stopTime="0.00" timeLoss="27.53" rerouteNo="1" devices="tripinfo_veh111 routing_veh111" vType="veh_passenger" speedFactor="1.06" vaporized=""/>
    <tripinfo id="veh716" depart="36.00" departLane="830352827#2_1" departPos="5.10" departSpeed="0.00" departDelay="0.06" arrival="108.00" arrivalLane="618284679#22_1" arrivalPos="15.40" arrivalSpeed="12.19" duration="72.00" routeLength="730.85" waitingTime="0.00" waitingCount="0" stopTime="0.00" timeLoss="10.27" rerouteNo="1" devices="tripinfo_veh716 routing_veh716" vType="veh_passenger" speedFactor="0.93" vaporized=""/>
    <tripinfo id="veh35" depart="2.00" departLane="128820826_2" departPos="5.10" departSpeed="0.00" departDelay="0.24" arrival="109.00" arrivalLane="866812154#0_1" arrivalPos="3.21" arrivalSpeed="7.48" duration="107.00" routeLength="994.32" waitingTime="8.00" waitingCount="1" stopTime="0.00" timeLoss="30.87" rerouteNo="1" devices="tripinfo_veh35 routing_veh35" vType="veh_passenger" speedFactor="0.99" vaporized=""/>
    <tripinfo id="veh846" depart="44.00" departLane="24715534#15_1" departPos="5.10" departSpeed="0.00" departDelay="1.53" arrival="110.00" arrivalLane="688753795#3_1" arrivalPos="74.65" arrivalSpeed="13.23" duration="66.00" routeLength="429.53" waitingTime="13.00" waitingCount="2" stopTime="0.00" timeLoss="35.80" rerouteNo="1" devices="tripinfo_veh846 routing_veh846" vType="veh_passenger" speedFactor="1.00" vaporized=""/>
    <tripinfo id="veh676" depart="34.00" departLane="865394856#4_2" departPos="5.10" departSpeed="0.00" departDelay="0.07" arrival="111.00" arrivalLane="1174921545#4_3" arrivalPos="72.51" arrivalSpeed="14.21" duration="77.00" routeLength="686.94" waitingTime="13.00" waitingCount="1" stopTime="0.00" timeLoss="27.75" rerouteNo="1" devices="tripinfo_veh676 routing_veh676" vType="veh_passenger" speedFactor="1.06" vaporized=""/>
    <tripinfo id="veh130" depart="7.00" departLane="743195085#0_0" departPos="5.10" departSpeed="0.00" departDelay="0.47" arrival="117.00" arrivalLane="617628983#1_1" arrivalPos="24.72" arrivalSpeed="10.79" duration="110.00" routeLength="1118.22" waitingTime="0.00" waitingCount="0" stopTime="0.00" timeLoss="10.70" rerouteNo="1" devices="tripinfo_veh130 routing_veh130" vType="veh_passenger" speedFactor="0.82" vaporized=""/>
    <tripinfo id="veh144" depart="8.00" departLane="569385785#0_1" departPos="5.10" departSpeed="0.00" departDelay="0.77" arrival="117.00" arrivalLane="24680512#1_1" arrivalPos="118.58" arrivalSpeed="15.36" duration="109.00" routeLength="1115.98" waitingTime="7.00" waitingCount="1" stopTime="0.00" timeLoss="37.21" rerouteNo="1" devices="tripinfo_veh144 routing_veh144" vType="veh_passenger" speedFactor="1.16" vaporized=""/>
    <tripinfo id="veh1076" depart="55.00" departLane="-25154790#2_0" departPos="5.10" departSpeed="0.00" departDelay="0.99" arrival="118.00" arrivalLane="866710417_0" arrivalPos="31.87" arrivalSpeed="13.80" duration="63.00" routeLength="704.19" waitingTime="0.00" waitingCount="0" stopTime="0.00" timeLoss="12.54" rerouteNo="1" devices="tripinfo_veh1076 routing_veh1076" vType="veh_passenger" speedFactor="1.05" vaporized=""/>
    <tripinfo id="veh351" depart="18.00" departLane="616927355#6_3" departPos="2.57" departSpeed="0.00" departDelay="0.38" arrival="120.00" arrivalLane="395300669#1_4" arrivalPos="38.11" arrivalSpeed="12.40" duration="102.00" routeLength="449.45" waitingTime="49.00" waitingCount="3" stopTime="0.00" timeLoss="67.42" rerouteNo="1" devices="tripinfo_veh351 routing_veh351" vType="veh_passenger" speedFactor="0.95" vaporized=""/>
    <tripinfo id="veh1118" depart="60.00" departLane="1135284431#1_1" departPos="5.10" departSpeed="0.00" departDelay="3.88" arrival="123.00" arrivalLane="24702427_2" arrivalPos="246.26" arrivalSpeed="13.65" duration="63.00" routeLength="561.24" waitingTime="11.00" waitingCount="1" stopTime="0.00" timeLoss="22.67" rerouteNo="1" devices="tripinfo_veh1118 routing_veh1118" vType="veh_passenger" speedFactor="1.03" vaporized=""/>
    <tripinfo id="veh1100" depart="56.00" departLane="-24703062#2_0" departPos="5.10" departSpeed="0.00" departDelay="0.78" arrival="132.00" arrivalLane="24738592#9_0" arrivalPos="104.87" arrivalSpeed="16.03" duration="76.00" routeLength="823.76" waitingTime="0.00" waitingCount="0" stopTime="0.00" timeLoss="24.67" rerouteNo="1" devices="tripinfo_veh1100 routing_veh1100" vType="veh_passenger" speedFactor="1.17" vaporized=""/>
    <tripinfo id="veh191" depart="10.00" departLane="1157287087#2_2" departPos="0.58" departSpeed="0.00" departDelay="0.41" arrival="133.00" arrivalLane="24858451#2_1" arrivalPos="2.24" arrivalSpeed="12.36" duration="123.00" routeLength="1010.88" waitingTime="17.00" waitingCount="2" stopTime="0.00" timeLoss="39.45" rerouteNo="1" devices="tripinfo_veh191 routing_veh191" vType="veh_passenger" speedFactor="0.89" vaporized=""/>
    <tripinfo id="veh1841" depart="93.00" departLane="24704251#3_0" departPos="5.10" departSpeed="0.00" departDelay="0.58" arrival="133.00" arrivalLane="866371633_1" arrivalPos="26.31" arrivalSpeed="12.75" duration="40.00" routeLength="454.65" waitingTime="0.00" waitingCount="0" stopTime="0.00" timeLoss="6.20" rerouteNo="1" devices="tripinfo_veh1841 routing_veh1841" vType="veh_passenger" speedFactor="0.98" vaporized=""/>
    <tripinfo id="veh903" depart="46.00" departLane="865473176_0" departPos="5.10" departSpeed="0.00" departDelay="0.67" arrival="135.00" arrivalLane="1203373148#0_0" arrivalPos="0.20" arrivalSpeed="9.86" duration="89.00" routeLength="830.76" waitingTime="10.00" waitingCount="1" stopTime="0.00" timeLoss="27.67" rerouteNo="1" devices="tripinfo_veh903 routing_veh903" vType="veh_passenger" speedFactor="1.01" vaporized=""/>
    <tripinfo id="veh1773" depart="89.00" departLane="25154589#0_0" departPos="5.10" departSpeed="0.00" departDelay="0.00" arrival="135.00" arrivalLane="24847390#0_2" arrivalPos="29.30" arrivalSpeed="14.44" duration="46.00" routeLength="541.95" waitingTime="0.00" waitingCount="0" stopTime="0.00" timeLoss="8.67" rerouteNo="1" devices="tripinfo_veh1773 routing_veh1773" vType="veh_passenger" speedFactor="1.08" vaporized=""/>
    <tripinfo id="veh405" depart="21.00" departLane="618028619#1_1" departPos="5.10" departSpeed="0.00" departDelay="0.67" arrival="136.00" arrivalLane="617628986#2_3" arrivalPos="67.73" arrivalSpeed="15.22" duration="115.00" routeLength="840.92" waitingTime="22.00" waitingCount="3" stopTime="0.00" timeLoss="58.27" rerouteNo="1" devices="tripinfo_veh405 routing_veh405" vType="veh_passenger" speedFactor="1.12" vaporized=""/>
    <tripinfo id="veh493" depart="25.00" departLane="867030713_3" departPos="5.10" departSpeed="0.00" departDelay="0.25" arrival="136.00" arrivalLane="-25154790#1_0" arrivalPos="100.34" arrivalSpeed="13.30" duration="111.00" routeLength="1202.09" waitingTime="1.00" waitingCount="1" stopTime="0.00" timeLoss="26.53" rerouteNo="1" devices="tripinfo_veh493 routing_veh493" vType="veh_passenger" speedFactor="1.04" vaporized=""/>
    <tripinfo id="veh849" depart="43.00" departLane="24836103#0_2" departPos="5.10" departSpeed="0.00" departDelay="0.38" arrival="137.00" arrivalLane="616812017#0_2" arrivalPos="51.88" arrivalSpeed="13.04" duration="94.00" routeLength="807.18" waitingTime="16.00" waitingCount="2" stopTime="0.00" timeLoss="35.21" rerouteNo="1" devices="tripinfo_veh849 routing_veh849" vType="veh_passenger" speedFactor="1.02" vaporized=""/>
    <tripinfo id="veh775" depart="39.00" departLane="976442408_0" departPos="5.10" departSpeed="0.00" departDelay="0.10" arrival="140.00" arrivalLane="617638516#7_1" arrivalPos="58.99" arrivalSpeed="14.46" duration="101.00" routeLength="1125.16" waitingTime="0.00" waitingCount="0" stopTime="0.00" timeLoss="22.35" rerouteNo="1" devices="tripinfo_veh775 routing_veh775" vType="veh_passenger" speedFactor="1.05" vaporized=""/>
    <tripinfo id="veh1000" depart="51.00" departLane="24836323#1_1" departPos="5.10" departSpeed="0.00" departDelay="0.80" arrival="140.00" arrivalLane="618045930#0_3" arrivalPos="48.15" arrivalSpeed="14.84" duration="89.00" routeLength="1030.84" waitingTime="0.00" waitingCount="0" stopTime="0.00" timeLoss="17.51" rerouteNo="1" devices="tripinfo_veh1000 routing_veh1000" vType="veh_passenger" speedFactor="1.07" vaporized=""/>
    <tripinfo id="veh185" depart="10.00" departLane="24836050#2_3" departPos="5.10" departSpeed="0.00" departDelay="0.71" arrival="141.00" arrivalLane="930957349_0" arrivalPos="39.03" arrivalSpeed="13.86" duration="131.00" routeLength="1084.46" waitingTime="25.00" waitingCount="2" stopTime="0.00" timeLoss="53.28" rerouteNo="1" devices="tripinfo_veh185 routing_veh185" vType="veh_passenger" speedFactor="1.03" vaporized=""/>
    <tripinfo id="veh215" depart="11.00" departLane="25154779#2_0" departPos="5.10" departSpeed="0.00" departDelay="0.21" arrival="141.00" arrivalLane="-332450399#0_0" arrivalPos="100.67" arrivalSpeed="14.54" duration="130.00" routeLength="1421.85" waitingTime="0.00" waitingCount="0" stopTime="0.00" timeLoss="33.39" rerouteNo="1" devices="tripinfo_veh215 routing_veh215" vType="veh_passenger" speedFactor="1.10" vaporized=""/>
    <tripinfo id="veh1207" depart="65.00" departLane="1120235110#2_3" departPos="5.10" departSpeed="0.00" departDelay="4.41" arrival="142.00" arrivalLane="-25154749#2_0" arrivalPos="81.71" arrivalSpeed="14.04" duration="77.00" routeLength="641.48" waitingTime="19.00" waitingCount="1" stopTime="0.00" timeLoss="29.75" rerouteNo="1" devices="tripinfo_veh1207 routing_veh1207" vType="veh_passenger" speedFactor="1.03" vaporized=""/>
    <tripinfo id="veh1049" depart="53.00" departLane="25154258#4_1" departPos="5.10" departSpeed="0.00" departDelay="0.34" arrival="143.00" arrivalLane="25154264#4_1" arrivalPos="5.94" arrivalSpeed="14.10" duration="90.00" routeLength="909.79" waitingTime="7.00" waitingCount="1" stopTime="0.00" timeLoss="22.84" rerouteNo="1" devices="tripinfo_veh1049 routing_veh1049" vType="veh_passenger" speedFactor="1.02" vaporized=""/>
    <tripinfo id="veh928" depart="47.00" departLane="-24734993#0_0" departPos="5.10" departSpeed="0.00" departDelay="0.41" arrival="145.00" arrivalLane="569404635#5_0" arrivalPos="29.62" arrivalSpeed="12.23" duration="98.00" routeLength="901.89" waitingTime="4.00" waitingCount="2" stopTime="0.00" timeLoss="23.66" rerouteNo="1" devices="tripinfo_veh928 routing_veh928" vType="veh_passenger" speedFactor="0.91" vaporized=""/>
    <tripinfo id="veh1155" depart="58.00" departLane="25154706#2_0" departPos="5.10" departSpeed="0.00" departDelay="0.02" arrival="145.00" arrivalLane="25154779#2_0" arrivalPos="100.40" arrivalSpeed="12.85" duration="87.00" routeLength="920.55" waitingTime="0.00" waitingCount="0" stopTime="0.00" timeLoss="14.52" rerouteNo="1" devices="tripinfo_veh1155 routing_veh1155" vType="veh_passenger" speedFactor="0.93" vaporized=""/>
    <tripinfo id="veh1689" depart="85.00" departLane="617638518#6_0" departPos="5.10" departSpeed="0.00" departDelay="0.21" arrival="145.00" arrivalLane="1135049099_1" arrivalPos="65.52" arrivalSpeed="13.55" duration="60.00" routeLength="713.84" waitingTime="0.00" waitingCount="0" stopTime="0.00" timeLoss="9.75" rerouteNo="1" devices="tripinfo_veh1689 routing_veh1689" vType="veh_passenger" speedFactor="1.04" vaporized=""/>
    <tripinfo id="veh1201" depart="61.00" departLane="-617633721#2_0" departPos="0.65" departSpeed="0.00" departDelay="0.71" arrival="146.00" arrivalLane="24738592#2_1" arrivalPos="0.93" arrivalSpeed="5.78" duration="85.00" routeLength="974.97" waitingTime="0.00" waitingCount="0" stopTime="0.00" timeLoss="15.21" rerouteNo="1" devices="tripinfo_veh1201 routing_veh1201" vType="veh_passenger" speedFactor="1.06" vaporized=""/>
    <tripinfo id="veh1313" depart="66.00" departLane="1120235110#2_1" departPos="5.10" departSpeed="0.00" departDelay="0.09" arrival="146.00" arrivalLane="25165161#0_0" arrivalPos="105.64" arrivalSpeed="10.67" duration="80.00" routeLength="495.84" waitingTime="19.00" waitingCount="2" stopTime="0.00" timeLoss="33.37" rerouteNo="1" devices="tripinfo_veh1313 routing_veh1313" vType="veh_passenger" speedFactor="0.78" vaporized=""/>
    <tripinfo id="veh740" depart="38.00" departLane="904258813#0_2" departPos="5.10" departSpeed="0.00" departDelay="0.85" arrival="147.00" arrivalLane="867018397#0_3" arrivalPos="117.59" arrivalSpeed="11.82" duration="109.00" routeLength="883.95" waitingTime="22.00" waitingCount="2" stopTime="0.00" timeLoss="41.18" rerouteNo="1" devices="tripinfo_veh740 routing_veh740" vType="veh_passenger" speedFactor="0.86" vaporized=""/>
    <tripinfo id="veh63" depart="4.00" departLane="854280395_2" departPos="5.10" departSpeed="0.00" departDelay="0.84" arrival="148.00" arrivalLane="688764080#4_2" arrivalPos="72.00" arrivalSpeed="5.37" duration="144.00" routeLength="1288.23" waitingTime="19.00" waitingCount="2" stopTime="0.00" timeLoss="60.11" rerouteNo="1" devices="tripinfo_veh63 routing_veh63" vType="veh_passenger" speedFactor="1.12" vaporized=""/>
    <tripinfo id="veh355" depart="18.00" departLane="24704403_0" departPos="5.10" departSpeed="0.00" departDelay="0.18" arrival="150.00" arrivalLane="222244155#1_1" arrivalPos="121.04" arrivalSpeed="10.90" duration="132.00" routeLength="942.70" waitingTime="19.00" waitingCount="3" stopTime="0.00" timeLoss="49.15" rerouteNo="1" devices="tripinfo_veh355 routing_veh355" vType="veh_passenger" speedFactor="0.82" vaporized=""/>
    <tripinfo id="veh495" depart="25.00" departLane="867030712#0_1" departPos="5.10" departSpeed="0.00" departDelay="0.15" arrival="151.00" arrivalLane="845528493#8_0" arrivalPos="50.90" arrivalSpeed="13.27" duration="126.00" routeLength="1453.22" waitingTime="1.00" waitingCount="1" stopTime="0.00" timeLoss="17.71" rerouteNo="1" devices="tripinfo_veh495 routing_veh495" vType="veh_passenger" speedFactor="0.99" vaporized=""/>
    <tripinfo id="veh1164" depart="59.00" departLane="24895408#11_0" departPos="5.10" departSpeed="0.00" departDelay="0.57" arrival="151.00" arrivalLane="128820818#1_0" arrivalPos="8.72" arrivalSpeed="14.98" duration="92.00" routeLength="895.07" waitingTime="8.00" waitingCount="1" stopTime="0.00" timeLoss="30.24" rerouteNo="1" devices="tripinfo_veh1164 routing_veh1164" vType="veh_passenger" speedFactor="1.09" vaporized=""/>
    <tripinfo id="veh393" depart="20.00" departLane="24685645#4_2" departPos="5.10" departSpeed="0.00" departDelay="0.27" arrival="152.00" arrivalLane="654529963#10_1" arrivalPos="55.15" arrivalSpeed="13.86" duration="132.00" routeLength="1534.90" waitingTime="0.00" waitingCount="0" stopTime="0.00" timeLoss="24.35" rerouteNo="1" devices="tripinfo_veh393 routing_veh393" vType="veh_passenger" speedFactor="1.06" vaporized=""/>
    <tripinfo id="veh776" depart="39.00" departLane="25154896#1_0" departPos="5.10" departSpeed="0.00" departDelay="0.05" arrival="153.00" arrivalLane="618279258#9_0" arrivalPos="121.45" arrivalSpeed="14.55" duration="114.00" routeLength="1115.74" waitingTime="9.00" waitingCount="2" stopTime="0.00" timeLoss="40.55" rerouteNo="1" devices="tripinfo_veh776 routing_veh776" vType="veh_passenger" speedFactor="1.13" vaporized=""/>
    <tripinfo id="veh883" depart="45.00" departLane="867035785_1" departPos="5.10" departSpeed="16.27" departDelay="0.67" arrival="156.00" arrivalLane="654821108#13_3" arrivalPos="29.98" arrivalSpeed="9.30" duration="111.00" routeLength="1351.82" waitingTime="0.00" waitingCount="0" stopTime="0.00" timeLoss="26.57" rerouteNo="1" devices="tripinfo_veh883 routing_veh883" vType="veh_passenger" speedFactor="1.17" vaporized=""/>
    <tripinfo id="veh206" depart="11.00" departLane="222239500#3_1" departPos="2.87" departSpeed="0.00" departDelay="0.66" arrival="157.00" arrivalLane="24940226_0" arrivalPos="131.13" arrivalSpeed="14.20" duration="146.00" routeLength="1503.00" waitingTime="5.00" waitingCount="2" stopTime="0.00" timeLoss="38.79" rerouteNo="1" devices="tripinfo_veh206 routing_veh206" vType="veh_passenger" speedFactor="1.03" vaporized=""/>
    <tripinfo id="veh603" depart="31.00" departLane="1180583842_1" departPos="5.10" departSpeed="0.00" departDelay="0.73" arrival="157.00" arrivalLane="1243740734#0_2" arrivalPos="88.42" arrivalSpeed="12.25" duration="126.00" routeLength="985.16" waitingTime="14.00" waitingCount="3" stopTime="0.00" timeLoss="38.57" rerouteNo="1" devices="tripinfo_veh603 routing_veh603" vType="veh_passenger" speedFactor="0.95" vaporized=""/>
    <tripinfo id="veh542" depart="28.00" departLane="1122164365_1" departPos="5.10" departSpeed="0.00" departDelay="0.79" arrival="158.00" arrivalLane="617887672#7_1" arrivalPos="43.69" arrivalSpeed="15.56" duration="130.00" routeLength="1282.51" waitingTime="22.00" waitingCount="3" stopTime="0.00" timeLoss="52.88" rerouteNo="1" devices="tripinfo_veh542 routing_veh542" vType="veh_passenger" speedFactor="1.21" vaporized=""/>
    <tripinfo id="veh2136" depart="108.00" departLane="24680512#2_1" departPos="5.10" departSpeed="0.00" departDelay="0.77" arrival="158.00" arrivalLane="1180581569#6_1" arrivalPos="65.54" arrivalSpeed="12.21" duration="50.00" routeLength="484.59" waitingTime="0.00" waitingCount="0" stopTime="0.00" timeLoss="10.57" rerouteNo="1" devices="tripinfo_veh2136 routing_veh2136" vType="veh_passenger" speedFactor="0.92" vaporized=""/>
    <tripinfo id="veh195" depart="10.00" departLane="-1122164356_0" departPos="5.10" departSpeed="0.00" departDelay="0.21" arrival="159.00" arrivalLane="24690839#0_0" arrivalPos="102.91" arrivalSpeed="12.65" duration="149.00" routeLength="1387.79" waitingTime="10.00" waitingCount="3" stopTime="0.00" timeLoss="39.11" rerouteNo="1" devices="tripinfo_veh195 routing_veh195" vType="veh_passenger" speedFactor="0.93" vaporized=""/>
    <tripinfo id="veh730" depart="37.00" departLane="25154781#9_0" departPos="5.10" departSpeed="0.00" departDelay="0.35" arrival="159.00" arrivalLane="654821107#10_2" arrivalPos="80.58" arrivalSpeed="13.85" duration="122.00" routeLength="1229.34" waitingTime="11.00" waitingCount="2" stopTime="0.00" timeLoss="43.99" rerouteNo="1" devices="tripinfo_veh730 routing_veh730" vType="veh_passenger" speedFactor="1.14" vaporized=""/>
    <tripinfo id="veh605" depart="31.00" departLane="569406321#1_1" departPos="5.10" departSpeed="0.00" departDelay="0.63" arrival="160.00" arrivalLane="120510335#4_1" arrivalPos="95.28" arrivalSpeed="8.66" duration="129.00" routeLength="1333.38" waitingTime="4.00" waitingCount="1" stopTime="0.00" timeLoss="22.60" rerouteNo="1" devices="tripinfo_veh605 routing_veh605" vType="veh_passenger" speedFactor="1.06" vaporized=""/>
    <tripinfo id="veh497" depart="25.00" departLane="30160209#1_1" departPos="5.10" departSpeed="0.00" departDelay="0.05" arrival="161.00" arrivalLane="904180979_2" arrivalPos="125.61" arrivalSpeed="5.31" duration="136.00" routeLength="1288.26" waitingTime="10.00" waitingCount="1" stopTime="0.00" timeLoss="38.93" rerouteNo="1" devices="tripinfo_veh497 routing_veh497" vType="veh_passenger" speedFactor="1.08" vaporized=""/>
    <tripinfo id="veh869" depart="44.00" departLane="1198095260#0_0" departPos="4.97" departSpeed="0.00" departDelay="0.38" arrival="162.00" arrivalLane="865440685#1_1" arrivalPos="37.30" arrivalSpeed="13.08" duration="118.00" routeLength="1388.84" waitingTime="0.00" waitingCount="0" stopTime="0.00" timeLoss="12.96" rerouteNo="1" devices="tripinfo_veh869 routing_veh869" vType="veh_passenger" speedFactor="0.96" vaporized=""/>
    <tripinfo id="veh360" depart="19.00" departLane="-25164395#2_0" departPos="4.24" departSpeed="0.00" departDelay="0.93" arrival="163.00" arrivalLane="618098739#5_0" arrivalPos="21.72" arrivalSpeed="12.69" duration="144.00" routeLength="1597.96" waitingTime="1.00" waitingCount="1" stopTime="0.00" timeLoss="22.97" rerouteNo="1" devices="tripinfo_veh360 routing_veh360" vType="veh_passenger" speedFactor="0.97" vaporized=""/>
    <tripinfo id="veh102" depart="6.00" departLane="24836487#7_1" departPos="5.10" departSpeed="0.00" departDelay="0.88" arrival="164.00" arrivalLane="905632797#0_2" arrivalPos="30.03" arrivalSpeed="8.73" duration="158.00" routeLength="1737.75" waitingTime="8.00" waitingCount="2" stopTime="0.00" timeLoss="41.90" rerouteNo="1" devices="tripinfo_veh102 routing_veh102" vType="veh_passenger" speedFactor="1.10" vaporized=""/>
    <tripinfo id="veh262" depart="14.00" departLane="1157120265_2" departPos="0.84" departSpeed="0.00" departDelay="0.85" arrival="164.00" arrivalLane="616812006_2" arrivalPos="135.91" arrivalSpeed="17.92" duration="150.00" routeLength="1247.80" waitingTime="19.00" waitingCount="3" stopTime="0.00" timeLoss="74.48" rerouteNo="1" devices="tripinfo_veh262 routing_veh262" vType="veh_passenger" speedFactor="1.30" vaporized=""/>
    <tripinfo id="veh362" depart="19.00" departLane="866398742#0_1" departPos="5.10" departSpeed="0.00" departDelay="0.83" arrival="164.00" arrivalLane="1217151535#1_2" arrivalPos="92.77" arrivalSpeed="12.64" duration="145.00" routeLength="1571.59" waitingTime="2.00" waitingCount="1" stopTime="0.00" timeLoss="26.38" rerouteNo="1" devices="tripinfo_veh362 routing_veh362" vType="veh_passenger" speedFactor="0.98" vaporized=""/>
    <tripinfo id="veh674" depart="34.00" departLane="845528493#0_1" departPos="5.10" departSpeed="0.00" departDelay="0.17" arrival="164.00" arrivalLane="24690728#3_0" arrivalPos="64.15" arrivalSpeed="10.99" duration="130.00" routeLength="1852.63" waitingTime="0.00" waitingCount="0" stopTime="0.00" timeLoss="9.74" rerouteNo="1" devices="tripinfo_veh674 routing_veh674" vType="veh_passenger" speedFactor="0.83" vaporized=""/>
    <tripinfo id="veh1252" depart="63.00" departLane="24859025#0_1" departPos="5.10" departSpeed="0.00" departDelay="0.15" arrival="165.00" arrivalLane="130848192#9_0" arrivalPos="114.91" arrivalSpeed="13.50" duration="102.00" routeLength="1121.42" waitingTime="2.00" waitingCount="1" stopTime="0.00" timeLoss="21.10" rerouteNo="1" devices="tripinfo_veh1252 routing_veh1252" vType="veh_passenger" speedFactor="1.01" vaporized=""/>
    <tripinfo id="veh481" depart="25.00" departLane="1311376499#7_1" departPos="5.10" departSpeed="0.00" departDelay="0.85" arrival="166.00" arrivalLane="-833663407#0_0" arrivalPos="55.01" arrivalSpeed="14.06" duration="141.00" routeLength="1480.36" waitingTime="3.00" waitingCount="1" stopTime="0.00" timeLoss="35.92" rerouteNo="1" devices="tripinfo_veh481 routing_veh481" vType="veh_passenger" speedFactor="1.04" vaporized=""/>
    <tripinfo id="veh927" depart="47.00" departLane="24700910#4_4" departPos="5.10" departSpeed="0.00" departDelay="0.47" arrival="166.00" arrivalLane="617638517#8_0" arrivalPos="57.19" arrivalSpeed="16.25" duration="119.00" routeLength="1064.12" waitingTime="21.00" waitingCount="4" stopTime="0.00" timeLoss="53.82" rerouteNo="1" devices="tripinfo_veh927 routing_veh927" vType="veh_passenger" speedFactor="1.21" vaporized=""/>
    <tripinfo id="veh1464" depart="74.00" departLane="619286430#17_0" departPos="5.10" departSpeed="0.00" departDelay="0.51" arrival="167.00" arrivalLane="1324181464_0" arrivalPos="107.81" arrivalSpeed="11.55" duration="93.00" routeLength="849.18" waitingTime="5.00" waitingCount="1" stopTime="0.00" timeLoss="20.41" rerouteNo="1" devices="tripinfo_veh1464 routing_veh1464" vType="veh_passenger" speedFactor="0.89" vaporized=""/>