<?xml version="1.0" encoding="UTF-8"?>

<!-- generated on 2023-10-12 17:01:23 by Eclipse SUMO GUI Version 1.18.0
<configuration xmlns:xsi="http://www.w3.org/2001/XMLSchema-instance" xsi:noNamespaceSchemaLocation="http://sumo.dlr.de/xsd/sumoConfiguration.xsd">

    <input>
        <net-file value="ejemplo.net.xml"/>
        <route-files value="ejbloqueo.rou.xml"/>
        <additional-files value="closededges.add.xml"/>
    </input>

    <output>
        <tripinfo-output value="tripinfo.xml"/>
    </output>

    <traci_server>
        <remote-port value="64630"/>
    </traci_server>

</configuration>
-->

<tripinfos xmlns:xsi="http://www.w3.org/2001/XMLSchema-instance" xsi:noNamespaceSchemaLocation="http://sumo.dlr.de/xsd/tripinfo_file.xsd">
    <tripinfo id="13" depart="13.00" departLane="A2B2_0" departPos="5.10" departSpeed="0.00" departDelay="0.00" arrival="22.00" arrivalLane="A2B2_0" arrivalPos="85.60" arrivalSpeed="14.61" duration="9.00" routeLength="80.50" waitingTime="0.00" waitingCount="0" stopTime="0.00" timeLoss="3.41" rerouteNo="1" devices="tripinfo_13 routing_13" vType="DEFAULT_VEHTYPE" speedFactor="1.12" vaporized=""/>
    <tripinfo id="6" depart="6.00" departLane="A1A0_0" departPos="5.10" departSpeed="0.00" departDelay="0.00" arrival="33.00" arrivalLane="B0C0_0" arrivalPos="85.60" arrivalSpeed="13.76" duration="27.00" routeLength="281.84" waitingTime="0.00" waitingCount="0" stopTime="0.00" timeLoss="6.92" rerouteNo="1" devices="tripinfo_6 routing_6" vType="DEFAULT_VEHTYPE" speedFactor="1.05" vaporized=""/>
    <tripinfo id="1" depart="1.00" departLane="B2B3_0" departPos="5.10" departSpeed="0.00" departDelay="0.00" arrival="38.00" arrivalLane="B1B0_0" arrivalPos="85.60" arrivalSpeed="12.65" duration="37.00" routeLength="370.77" waitingTime="0.00" waitingCount="0" stopTime="0.00" timeLoss="7.13" rerouteNo="1" devices="tripinfo_1 routing_1" vType="DEFAULT_VEHTYPE" speedFactor="0.94" vaporized=""/>
    <tripinfo id="17" depart="17.00" departLane="B4C4_0" departPos="5.10" departSpeed="0.00" departDelay="0.00" arrival="49.00" arrivalLane="C3C4_0" arrivalPos="85.60" arrivalSpeed="12.52" duration="32.00" routeLength="265.40" waitingTime="0.00" waitingCount="0" stopTime="0.00" timeLoss="10.00" rerouteNo="1" devices="tripinfo_17 routing_17" vType="DEFAULT_VEHTYPE" speedFactor="0.94" vaporized=""/>
    <tripinfo id="39" depart="39.00" departLane="B2B1_0" departPos="5.10" departSpeed="0.00" departDelay="0.00" arrival="59.00" arrivalLane="B1C1_0" arrivalPos="85.60" arrivalSpeed="11.67" duration="20.00" routeLength="180.30" waitingTime="0.00" waitingCount="0" stopTime="0.00" timeLoss="4.44" rerouteNo="0" devices="tripinfo_39 routing_39" vType="DEFAULT_VEHTYPE" speedFactor="0.90" vaporized=""/>
    <tripinfo id="21" depart="21.00" departLane="B1B2_0" departPos="5.10" departSpeed="0.00" departDelay="0.00" arrival="62.00" arrivalLane="A1B1_0" arrivalPos="85.60" arrivalSpeed="13.39" duration="41.00" routeLength="355.67" waitingTime="0.00" waitingCount="0" stopTime="0.00" timeLoss="13.82" rerouteNo="1" devices="tripinfo_21 routing_21" vType="DEFAULT_VEHTYPE" speedFactor="1.01" vaporized=""/>
    <tripinfo id="4" depart="4.00" departLane="C0D0_0" departPos="5.10" departSpeed="0.00" departDelay="0.00" arrival="63.00" arrivalLane="A1A0_0" arrivalPos="89.60" arrivalSpeed="13.14" duration="59.00" routeLength="561.22" waitingTime="0.00" waitingCount="0" stopTime="0.00" timeLoss="17.46" rerouteNo="1" devices="tripinfo_4 routing_4" vType="DEFAULT_VEHTYPE" speedFactor="1.03" vaporized=""/>
    <tripinfo id="25" depart="25.00" departLane="B4B3_0" departPos="5.10" departSpeed="0.00" departDelay="0.00" arrival="63.00" arrivalLane="B1A1_0" arrivalPos="85.60" arrivalSpeed="11.69" duration="38.00" routeLength="375.13" waitingTime="0.00" waitingCount="0" stopTime="0.00" timeLoss="5.75" rerouteNo="1" devices="tripinfo_25 routing_25" vType="DEFAULT_VEHTYPE" speedFactor="0.87" vaporized=""/>
    <tripinfo id="34" depart="45.00" departLane="B3B2_0" departPos="5.10" departSpeed="0.00" departDelay="11.00" arrival="63.00" arrivalLane="B2B1_0" arrivalPos="85.60" arrivalSpeed="8.62" duration="18.00" routeLength="180.50" waitingTime="0.00" waitingCount="0" stopTime="0.00" timeLoss="4.68" rerouteNo="0" devices="tripinfo_34 routing_34" vType="DEFAULT_VEHTYPE" speedFactor="0.99" vaporized=""/>
    <tripinfo id="2" depart="2.00" departLane="D2D3_0" departPos="5.10" departSpeed="0.00" departDelay="0.00" arrival="64.00" arrivalLane="D1D2_0" arrivalPos="85.60" arrivalSpeed="13.85" duration="62.00" routeLength="361.04" waitingTime="20.00" waitingCount="1" stopTime="0.00" timeLoss="33.87" rerouteNo="1" devices="tripinfo_2 routing_2" vType="DEFAULT_VEHTYPE" speedFactor="1.01" vaporized=""/>
    <tripinfo id="10" depart="12.00" departLane="D4C4_0" departPos="5.10" departSpeed="0.00" departDelay="2.00" arrival="66.00" arrivalLane="D1E1_0" arrivalPos="85.60" arrivalSpeed="14.70" duration="54.00" routeLength="565.20" waitingTime="0.00" waitingCount="0" stopTime="0.00" timeLoss="13.76" rerouteNo="1" devices="tripinfo_10 routing_10" vType="DEFAULT_VEHTYPE" speedFactor="1.09" vaporized=""/>
    <tripinfo id="23" depart="23.00" departLane="A3A2_0" departPos="5.10" departSpeed="0.00" departDelay="0.00" arrival="66.00" arrivalLane="B2B3_0" arrivalPos="85.60" arrivalSpeed="11.46" duration="43.00" routeLength="280.09" waitingTime="8.00" waitingCount="1" stopTime="0.00" timeLoss="18.65" rerouteNo="1" devices="tripinfo_23 routing_23" vType="DEFAULT_VEHTYPE" speedFactor="0.89" vaporized=""/>
    <tripinfo id="37" depart="37.00" departLane="D1C1_0" departPos="5.10" departSpeed="0.00" departDelay="0.00" arrival="66.00" arrivalLane="C0B0_0" arrivalPos="85.60" arrivalSpeed="16.18" duration="29.00" routeLength="274.92" waitingTime="0.00" waitingCount="0" stopTime="0.00" timeLoss="10.37" rerouteNo="1" devices="tripinfo_37 routing_37" vType="DEFAULT_VEHTYPE" speedFactor="1.18" vaporized=""/>
    <tripinfo id="11" depart="12.00" departLane="B3C3_0" departPos="5.10" departSpeed="0.00" departDelay="1.00" arrival="69.00" arrivalLane="A4B4_0" arrivalPos="89.60" arrivalSpeed="14.07" duration="57.00" routeLength="461.58" waitingTime="5.00" waitingCount="1" stopTime="0.00" timeLoss="23.17" rerouteNo="1" devices="tripinfo_11 routing_11" vType="DEFAULT_VEHTYPE" speedFactor="1.03" vaporized=""/>
    <tripinfo id="42" depart="42.00" departLane="C0B0_0" departPos="5.10" departSpeed="0.00" departDelay="0.00" arrival="70.00" arrivalLane="B1B0_0" arrivalPos="85.60" arrivalSpeed="15.01" duration="28.00" routeLength="265.40" waitingTime="0.00" waitingCount="0" stopTime="0.00" timeLoss="8.65" rerouteNo="1" devices="tripinfo_42 routing_42" vType="DEFAULT_VEHTYPE" speedFactor="1.09" vaporized=""/>
    <tripinfo id="14" depart="14.00" departLane="E0D0_0" departPos="5.10" departSpeed="0.00" departDelay="0.00" arrival="74.00" arrivalLane="C4D4_0" arrivalPos="85.60" arrivalSpeed="12.74" duration="60.00" routeLength="673.76" waitingTime="0.00" waitingCount="0" stopTime="0.00" timeLoss="9.57" rerouteNo="1" devices="tripinfo_14 routing_14" vType="DEFAULT_VEHTYPE" speedFactor="0.99" vaporized=""/>
    <tripinfo id="57" depart="57.00" departLane="E2E1_0" departPos="5.10" departSpeed="0.00" departDelay="0.00" arrival="75.00" arrivalLane="E1D1_0" arrivalPos="85.60" arrivalSpeed="15.47" duration="18.00" routeLength="175.13" waitingTime="0.00" waitingCount="0" stopTime="0.00" timeLoss="5.86" rerouteNo="0" devices="tripinfo_57 routing_57" vType="DEFAULT_VEHTYPE" speedFactor="1.14" vaporized=""/>
    <tripinfo id="16" depart="16.00" departLane="C3B3_0" departPos="5.10" departSpeed="0.00" departDelay="0.00" arrival="76.00" arrivalLane="E3E4_0" arrivalPos="89.60" arrivalSpeed="11.45" duration="60.00" routeLength="474.56" waitingTime="3.00" waitingCount="1" stopTime="0.00" timeLoss="18.80" rerouteNo="1" devices="tripinfo_16 routing_16" vType="DEFAULT_VEHTYPE" speedFactor="0.88" vaporized=""/>
    <tripinfo id="15" depart="15.00" departLane="D4C4_0" departPos="5.10" departSpeed="0.00" departDelay="0.00" arrival="78.00" arrivalLane="D2D3_0" arrivalPos="85.60" arrivalSpeed="12.85" duration="63.00" routeLength="455.67" waitingTime="9.00" waitingCount="1" stopTime="0.00" timeLoss="23.44" rerouteNo="1" devices="tripinfo_15 routing_15" vType="DEFAULT_VEHTYPE" speedFactor="0.93" vaporized=""/>
    <tripinfo id="19" depart="21.00" departLane="E0E1_0" departPos="5.10" departSpeed="0.00" departDelay="2.00" arrival="78.00" arrivalLane="C4B4_0" arrivalPos="85.60" arrivalSpeed="15.80" duration="57.00" routeLength="685.84" waitingTime="0.00" waitingCount="0" stopTime="0.00" timeLoss="13.47" rerouteNo="1" devices="tripinfo_19 routing_19" vType="DEFAULT_VEHTYPE" speedFactor="1.16" vaporized=""/>
    <tripinfo id="7" depart="7.00" departLane="D0E0_0" departPos="5.10" departSpeed="0.00" departDelay="0.00" arrival="79.00" arrivalLane="C3C2_0" arrivalPos="85.60" arrivalSpeed="11.14" duration="72.00" routeLength="681.43" waitingTime="0.00" waitingCount="0" stopTime="0.00" timeLoss="13.53" rerouteNo="1" devices="tripinfo_7 routing_7" vType="DEFAULT_VEHTYPE" speedFactor="0.89" vaporized=""/>
    <tripinfo id="38" depart="38.00" departLane="E2E1_0" departPos="5.10" departSpeed="0.00" departDelay="0.00" arrival="79.00" arrivalLane="C1C2_0" arrivalPos="85.60" arrivalSpeed="14.22" duration="41.00" routeLength="369.76" waitingTime="0.00" waitingCount="0" stopTime="0.00" timeLoss="15.36" rerouteNo="1" devices="tripinfo_38 routing_38" vType="DEFAULT_VEHTYPE" speedFactor="1.10" vaporized=""/>
    <tripinfo id="20" depart="22.00" departLane="D2C2_0" departPos="5.10" departSpeed="0.00" departDelay="2.00" arrival="82.00" arrivalLane="A1A2_0" arrivalPos="85.60" arrivalSpeed="13.39" duration="60.00" routeLength="469.55" waitingTime="6.00" waitingCount="2" stopTime="0.00" timeLoss="24.76" rerouteNo="1" devices="tripinfo_20 routing_20" vType="DEFAULT_VEHTYPE" speedFactor="1.02" vaporized=""/>
    <tripinfo id="18" depart="18.00" departLane="D4E4_0" departPos="5.10" departSpeed="0.00" departDelay="0.00" arrival="83.00" arrivalLane="D0C0_0" arrivalPos="85.60" arrivalSpeed="12.32" duration="65.00" routeLength="672.86" waitingTime="0.00" waitingCount="0" stopTime="0.00" timeLoss="11.65" rerouteNo="1" devices="tripinfo_18 routing_18" vType="DEFAULT_VEHTYPE" speedFactor="0.94" vaporized=""/>
    <tripinfo id="44" depart="44.00" departLane="A2B2_0" departPos="5.10" departSpeed="0.00" departDelay="0.00" arrival="86.00" arrivalLane="A1A2_0" arrivalPos="85.60" arrivalSpeed="14.06" duration="42.00" routeLength="364.39" waitingTime="2.00" waitingCount="1" stopTime="0.00" timeLoss="14.15" rerouteNo="1" devices="tripinfo_44 routing_44" vType="DEFAULT_VEHTYPE" speedFactor="1.04" vaporized=""/>
    <tripinfo id="30" depart="33.00" departLane="E4E3_0" departPos="5.10" departSpeed="0.00" departDelay="3.00" arrival="87.00" arrivalLane="D0E0_0" arrivalPos="89.60" arrivalSpeed="16.28" duration="54.00" routeLength="574.95" waitingTime="0.00" waitingCount="0" stopTime="0.00" timeLoss="17.30" rerouteNo="1" devices="tripinfo_30 routing_30" vType="DEFAULT_VEHTYPE" speedFactor="1.18" vaporized=""/>
    <tripinfo id="26" depart="26.00" departLane="B2B1_0" departPos="5.10" departSpeed="0.00" departDelay="0.00" arrival="88.00" arrivalLane="E2E3_0" arrivalPos="85.60" arrivalSpeed="12.70" duration="62.00" routeLength="580.09" waitingTime="1.00" waitingCount="1" stopTime="0.00" timeLoss="14.70" rerouteNo="1" devices="tripinfo_26 routing_26" vType="DEFAULT_VEHTYPE" speedFactor="0.92" vaporized=""/>
    <tripinfo id="0" depart="0.00" departLane="D0E0_0" departPos="5.10" departSpeed="0.00" departDelay="0.00" arrival="89.00" arrivalLane="A1A0_0" arrivalPos="89.60" arrivalSpeed="14.11" duration="89.00" routeLength="685.43" waitingTime="12.00" waitingCount="3" stopTime="0.00" timeLoss="39.89" rerouteNo="1" devices="tripinfo_0 routing_0" vType="DEFAULT_VEHTYPE" speedFactor="1.06" vaporized=""/>
    <tripinfo id="32" depart="32.00" departLane="E0D0_0" departPos="5.10" departSpeed="0.00" departDelay="0.00" arrival="89.00" arrivalLane="D3D4_0" arrivalPos="85.60" arrivalSpeed="5.36" duration="57.00" routeLength="479.13" waitingTime="9.00" waitingCount="1" stopTime="0.00" timeLoss="22.01" rerouteNo="1" devices="tripinfo_32 routing_32" vType="DEFAULT_VEHTYPE" speedFactor="1.01" vaporized=""/>
    <tripinfo id="9" depart="9.00" departLane="D4C4_0" departPos="5.10" departSpeed="0.00" departDelay="0.00" arrival="90.00" arrivalLane="A0A1_0" arrivalPos="89.60" arrivalSpeed="11.23" duration="81.00" routeLength="771.11" waitingTime="0.00" waitingCount="0" stopTime="0.00" timeLoss="13.38" rerouteNo="1" devices="tripinfo_9 routing_9" vType="DEFAULT_VEHTYPE" speedFactor="0.86" vaporized=""/>
    <tripinfo id="51" depart="57.00" departLane="D1D2_0" departPos="5.10" departSpeed="0.00" departDelay="6.00" arrival="91.00" arrivalLane="C3B3_0" arrivalPos="85.60" arrivalSpeed="15.97" duration="34.00" routeLength="380.30" waitingTime="0.00" waitingCount="0" stopTime="0.00" timeLoss="9.04" rerouteNo="1" devices="tripinfo_51 routing_51" vType="DEFAULT_VEHTYPE" speedFactor="1.17" vaporized=""/>
    <tripinfo id="31" depart="31.00" departLane="C3C4_0" departPos="5.10" departSpeed="0.00" departDelay="0.00" arrival="92.00" arrivalLane="D1D2_0" arrivalPos="85.60" arrivalSpeed="15.19" duration="61.00" routeLength="560.03" waitingTime="2.00" waitingCount="1" stopTime="0.00" timeLoss="23.29" rerouteNo="1" devices="tripinfo_31 routing_31" vType="DEFAULT_VEHTYPE" speedFactor="1.15" vaporized=""/>
    <tripinfo id="40" depart="43.00" departLane="C3C4_0" departPos="5.10" departSpeed="0.00" departDelay="3.00" arrival="94.00" arrivalLane="B2B1_0" arrivalPos="85.60" arrivalSpeed="14.23" duration="51.00" routeLength="465.19" waitingTime="1.00" waitingCount="1" stopTime="0.00" timeLoss="16.25" rerouteNo="1" devices="tripinfo_40 routing_40" vType="DEFAULT_VEHTYPE" speedFactor="1.03" vaporized=""/>
    <tripinfo id="28" depart="28.00" departLane="B0A0_0" departPos="5.10" departSpeed="0.00" departDelay="0.00" arrival="95.00" arrivalLane="D2D3_0" arrivalPos="85.60" arrivalSpeed="15.60" duration="67.00" routeLength="671.10" waitingTime="0.00" waitingCount="0" stopTime="0.00" timeLoss="22.64" rerouteNo="1" devices="tripinfo_28 routing_28" vType="DEFAULT_VEHTYPE" speedFactor="1.13" vaporized=""/>
    <tripinfo id="52" depart="56.00" departLane="B2B1_0" departPos="5.10" departSpeed="0.00" departDelay="4.00" arrival="98.00" arrivalLane="D0E0_0" arrivalPos="89.60" arrivalSpeed="13.71" duration="42.00" routeLength="484.29" waitingTime="0.00" waitingCount="0" stopTime="0.00" timeLoss="6.85" rerouteNo="1" devices="tripinfo_52 routing_52" vType="DEFAULT_VEHTYPE" speedFactor="1.02" vaporized=""/>
    <tripinfo id="29" depart="34.00" departLane="B0A0_0" departPos="5.10" departSpeed="0.00" departDelay="5.00" arrival="99.00" arrivalLane="B4C4_0" arrivalPos="85.60" arrivalSpeed="12.32" duration="65.00" routeLength="672.86" waitingTime="0.00" waitingCount="0" stopTime="0.00" timeLoss="11.91" rerouteNo="1" devices="tripinfo_29 routing_29" vType="DEFAULT_VEHTYPE" speedFactor="0.93" vaporized=""/>
    <tripinfo id="27" depart="27.00" departLane="D0E0_0" departPos="5.10" departSpeed="0.00" departDelay="0.00" arrival="101.00" arrivalLane="C4D4_0" arrivalPos="85.60" arrivalSpeed="13.15" duration="74.00" routeLength="773.45" waitingTime="0.00" waitingCount="0" stopTime="0.00" timeLoss="12.97" rerouteNo="1" devices="tripinfo_27 routing_27" vType="DEFAULT_VEHTYPE" speedFactor="0.95" vaporized=""/>
    <tripinfo id="62" depart="62.00" departLane="A0A1_0" departPos="5.10" departSpeed="0.00" departDelay="0.00" arrival="106.00" arrivalLane="B3B2_0" arrivalPos="85.60" arrivalSpeed="13.35" duration="44.00" routeLength="473.76" waitingTime="0.00" waitingCount="0" stopTime="0.00" timeLoss="8.57" rerouteNo="1" devices="tripinfo_62 routing_62" vType="DEFAULT_VEHTYPE" speedFactor="1.02" vaporized=""/>
    <tripinfo id="73" depart="77.00" departLane="C3C2_0" departPos="5.10" departSpeed="0.00" departDelay="4.00" arrival="106.00" arrivalLane="D2D3_0" arrivalPos="85.60" arrivalSpeed="13.88" duration="29.00" routeLength="280.09" waitingTime="0.00" waitingCount="0" stopTime="0.00" timeLoss="7.88" rerouteNo="1" devices="tripinfo_73 routing_73" vType="DEFAULT_VEHTYPE" speedFactor="1.06" vaporized=""/>
    <tripinfo id="65" depart="66.00" departLane="B3A3_0" departPos="5.10" departSpeed="0.00" departDelay="1.00" arrival="107.00" arrivalLane="A1B1_0" arrivalPos="85.60" arrivalSpeed="12.00" duration="41.00" routeLength="380.09" waitingTime="0.00" waitingCount="0" stopTime="0.00" timeLoss="8.17" rerouteNo="1" devices="tripinfo_65 routing_65" vType="DEFAULT_VEHTYPE" speedFactor="0.88" vaporized=""/>
    <tripinfo id="45" depart="45.00" departLane="A3A2_0" departPos="5.10" departSpeed="0.00" departDelay="0.00" arrival="108.00" arrivalLane="D0D1_0" arrivalPos="85.60" arrivalSpeed="14.86" duration="63.00" routeLength="681.64" waitingTime="2.00" waitingCount="1" stopTime="0.00" timeLoss="15.90" rerouteNo="1" devices="tripinfo_45 routing_45" vType="DEFAULT_VEHTYPE" speedFactor="1.09" vaporized=""/>
    <tripinfo id="48" depart="48.00" departLane="E4E3_0" departPos="5.10" departSpeed="0.00" departDelay="0.00" arrival="108.00" arrivalLane="C3B3_0" arrivalPos="85.60" arrivalSpeed="11.04" duration="60.00" routeLength="379.13" waitingTime="15.00" waitingCount="1" stopTime="0.00" timeLoss="27.18" rerouteNo="1" devices="tripinfo_48 routing_48" vType="DEFAULT_VEHTYPE" speedFactor="0.88" vaporized=""/>
    <tripinfo id="54" depart="54.00" departLane="C1C2_0" departPos="5.10" departSpeed="0.00" departDelay="0.00" arrival="108.00" arrivalLane="E3E2_0" arrivalPos="85.60" arrivalSpeed="12.79" duration="54.00" routeLength="469.76" waitingTime="1.00" waitingCount="1" stopTime="0.00" timeLoss="18.53" rerouteNo="1" devices="tripinfo_54 routing_54" vType="DEFAULT_VEHTYPE" speedFactor="1.00" vaporized=""/>
    <tripinfo id="58" depart="58.00" departLane="A1B1_0" departPos="5.10" departSpeed="0.00" departDelay="0.00" arrival="109.00" arrivalLane="D0E0_0" arrivalPos="89.60" arrivalSpeed="14.08" duration="51.00" routeLength="478.92" waitingTime="0.00" waitingCount="0" stopTime="0.00" timeLoss="15.89" rerouteNo="1" devices="tripinfo_58 routing_58" vType="DEFAULT_VEHTYPE" speedFactor="1.02" vaporized=""/>
    <tripinfo id="67" depart="67.00" departLane="A2A3_0" departPos="5.10" departSpeed="0.00" departDelay="0.00" arrival="111.00" arrivalLane="A1B1_0" arrivalPos="85.60" arrivalSpeed="11.65" duration="44.00" routeLength="370.57" waitingTime="0.00" waitingCount="0" stopTime="0.00" timeLoss="12.95" rerouteNo="1" devices="tripinfo_67 routing_67" vType="DEFAULT_VEHTYPE" speedFactor="0.91" vaporized=""/>
    <tripinfo id="61" depart="61.00" departLane="D3D4_0" departPos="5.10" departSpeed="0.00" departDelay="0.00" arrival="113.00" arrivalLane="C3B3_0" arrivalPos="85.60" arrivalSpeed="15.32" duration="52.00" routeLength="365.40" waitingTime="11.00" waitingCount="1" stopTime="0.00" timeLoss="26.70" rerouteNo="1" devices="tripinfo_61 routing_61" vType="DEFAULT_VEHTYPE" speedFactor="1.12" vaporized=""/>
    <tripinfo id="76" depart="76.00" departLane="C1C0_0" departPos="5.10" departSpeed="0.00" departDelay="0.00" arrival="113.00" arrivalLane="C2D2_0" arrivalPos="85.60" arrivalSpeed="13.81" duration="37.00" routeLength="365.40" waitingTime="0.00" waitingCount="0" stopTime="0.00" timeLoss="9.60" rerouteNo="1" devices="tripinfo_76 routing_76" vType="DEFAULT_VEHTYPE" speedFactor="1.03" vaporized=""/>
    <tripinfo id="78" depart="78.00" departLane="B3C3_0" departPos="5.10" departSpeed="0.00" departDelay="0.00" arrival="113.00" arrivalLane="C4C3_0" arrivalPos="85.60" arrivalSpeed="13.41" duration="35.00" routeLength="270.56" waitingTime="0.00" waitingCount="0" stopTime="0.00" timeLoss="13.07" rerouteNo="1" devices="tripinfo_78 routing_78" vType="DEFAULT_VEHTYPE" speedFactor="1.01" vaporized=""/>
    <tripinfo id="35" depart="37.00" departLane="B1A1_0" departPos="5.10" departSpeed="0.00" departDelay="2.00" arrival="114.00" arrivalLane="E3D3_0" arrivalPos="85.60" arrivalSpeed="13.27" duration="77.00" routeLength="760.03" waitingTime="0.00" waitingCount="0" stopTime="0.00" timeLoss="20.80" rerouteNo="1" devices="tripinfo_35 routing_35" vType="DEFAULT_VEHTYPE" speedFactor="1.02" vaporized=""/>
    <tripinfo id="47" depart="47.00" departLane="A2A1_0" departPos="5.10" departSpeed="0.00" departDelay="0.00" arrival="114.00" arrivalLane="B4C4_0" arrivalPos="85.60" arrivalSpeed="11.26" duration="67.00" routeLength="566.95" waitingTime="0.00" waitingCount="0" stopTime="0.00" timeLoss="19.36" rerouteNo="1" devices="tripinfo_47 routing_47" vType="DEFAULT_VEHTYPE" speedFactor="0.90" vaporized=""/>
    <tripinfo id="50" depart="50.00" departLane="A0A1_0" departPos="5.10" departSpeed="0.00" departDelay="0.00" arrival="114.00" arrivalLane="D2D1_0" arrivalPos="85.60" arrivalSpeed="11.07" duration="64.00" routeLength="568.18" waitingTime="0.00" waitingCount="0" stopTime="0.00" timeLoss="12.66" rerouteNo="1" devices="tripinfo_50 routing_50" vType="DEFAULT_VEHTYPE" speedFactor="0.85" vaporized=""/>
    <tripinfo id="53" depart="53.00" departLane="A3A2_0" departPos="5.10" departSpeed="0.00" departDelay="0.00" arrival="116.00" arrivalLane="C1B1_0" arrivalPos="85.60" arrivalSpeed="14.66" duration="63.00" routeLength="470.57" waitingTime="0.00" waitingCount="0" stopTime="0.00" timeLoss="29.64" rerouteNo="1" devices="tripinfo_53 routing_53" vType="DEFAULT_VEHTYPE" speedFactor="1.10" vaporized=""/>
    <tripinfo id="24" depart="24.00" departLane="D0D1_0" departPos="5.10" departSpeed="0.00" departDelay="0.00" arrival="117.00" arrivalLane="B4B3_0" arrivalPos="85.60" arrivalSpeed="10.34" duration="93.00" routeLength="680.09" waitingTime="18.00" waitingCount="1" stopTime="0.00" timeLoss="32.00" rerouteNo="1" devices="tripinfo_24 routing_24" vType="DEFAULT_VEHTYPE" speedFactor="0.83" vaporized=""/>
    <tripinfo id="41" depart="41.00" departLane="C4B4_0" departPos="5.10" departSpeed="0.00" departDelay="0.00" arrival="119.00" arrivalLane="E1E2_0" arrivalPos="85.60" arrivalSpeed="13.26" duration="78.00" routeLength="757.22" waitingTime="0.00" waitingCount="0" stopTime="0.00" timeLoss="17.90" rerouteNo="1" devices="tripinfo_41 routing_41" vType="DEFAULT_VEHTYPE" speedFactor="0.96" vaporized=""/>
    <tripinfo id="56" depart="56.00" departLane="C2C3_0" departPos="5.10" departSpeed="0.00" departDelay="0.00" arrival="122.00" arrivalLane="B0B1_0" arrivalPos="85.60" arrivalSpeed="11.60" duration="66.00" routeLength="560.03" waitingTime="5.00" waitingCount="1" stopTime="0.00" timeLoss="17.88" rerouteNo="1" devices="tripinfo_56 routing_56" vType="DEFAULT_VEHTYPE" speedFactor="0.90" vaporized=""/>
    <tripinfo id="63" depart="63.00" departLane="A0B0_0" departPos="5.10" departSpeed="0.00" departDelay="0.00" arrival="122.00" arrivalLane="E2E3_0" arrivalPos="85.60" arrivalSpeed="13.06" duration="59.00" routeLength="685.84" waitingTime="0.00" waitingCount="0" stopTime="0.00" timeLoss="7.83" rerouteNo="1" devices="tripinfo_63 routing_63" vType="DEFAULT_VEHTYPE" speedFactor="0.99" vaporized=""/>
    <tripinfo id="72" depart="72.00" departLane="C0D0_0" departPos="5.10" departSpeed="0.00" departDelay="0.00" arrival="122.00" arrivalLane="B1A1_0" arrivalPos="85.60" arrivalSpeed="12.18" duration="50.00" routeLength="465.20" waitingTime="0.00" waitingCount="0" stopTime="0.00" timeLoss="10.59" rerouteNo="1" devices="tripinfo_72 routing_72" vType="DEFAULT_VEHTYPE" speedFactor="0.94" vaporized=""/>
    <tripinfo id="94" depart="94.00" departLane="B0C0_0" departPos="5.10" departSpeed="0.00" departDelay="0.00" arrival="123.00" arrivalLane="C1C0_0" arrivalPos="85.60" arrivalSpeed="13.90" duration="29.00" routeLength="270.57" waitingTime="0.00" waitingCount="0" stopTime="0.00" timeLoss="9.13" rerouteNo="1" devices="tripinfo_94 routing_94" vType="DEFAULT_VEHTYPE" speedFactor="1.09" vaporized=""/>
    <tripinfo id="74" depart="74.00" departLane="B1A1_0" departPos="5.10" departSpeed="0.00" departDelay="0.00" arrival="124.00" arrivalLane="B3A3_0" arrivalPos="85.60" arrivalSpeed="12.30" duration="50.00" routeLength="460.03" waitingTime="0.00" waitingCount="0" stopTime="0.00" timeLoss="12.34" rerouteNo="1" devices="tripinfo_74 routing_74" vType="DEFAULT_VEHTYPE" speedFactor="0.96" vaporized=""/>
    <tripinfo id="83" depart="85.00" departLane="B1C1_0" departPos="5.10" departSpeed="0.00" departDelay="2.00" arrival="124.00" arrivalLane="D1D0_0" arrivalPos="85.60" arrivalSpeed="13.18" duration="39.00" routeLength="275.13" waitingTime="2.00" waitingCount="2" stopTime="0.00" timeLoss="17.27" rerouteNo="1" devices="tripinfo_83 routing_83" vType="DEFAULT_VEHTYPE" speedFactor="0.97" vaporized=""/>
    <tripinfo id="85" depart="85.00" departLane="E2E3_0" departPos="5.10" departSpeed="0.00" departDelay="0.00" arrival="125.00" arrivalLane="C3D3_0" arrivalPos="85.60" arrivalSpeed="12.85" duration="40.00" routeLength="370.57" waitingTime="0.00" waitingCount="0" stopTime="0.00" timeLoss="10.07" rerouteNo="1" devices="tripinfo_85 routing_85" vType="DEFAULT_VEHTYPE" speedFactor="0.98" vaporized=""/>
    <tripinfo id="102" depart="105.00" departLane="A1B1_0" departPos="5.10" departSpeed="0.00" departDelay="3.00" arrival="125.00" arrivalLane="B1B0_0" arrivalPos="85.60" arrivalSpeed="12.52" duration="20.00" routeLength="175.13" waitingTime="0.00" waitingCount="0" stopTime="0.00" timeLoss="5.99" rerouteNo="0" devices="tripinfo_102 routing_102" vType="DEFAULT_VEHTYPE" speedFactor="0.97" vaporized=""/>
    <tripinfo id="46" depart="47.00" departLane="D3E3_0" departPos="5.10" departSpeed="0.00" departDelay="1.00" arrival="127.00" arrivalLane="C0D0_0" arrivalPos="85.60" arrivalSpeed="13.00" duration="80.00" routeLength="661.58" waitingTime="10.00" waitingCount="1" stopTime="0.00" timeLoss="30.09" rerouteNo="1" devices="tripinfo_46 routing_46" vType="DEFAULT_VEHTYPE" speedFactor="1.00" vaporized=""/>
    <tripinfo id="90" depart="92.00" departLane="D2D3_0" departPos="5.10" departSpeed="0.00" departDelay="2.00" arrival="127.00" arrivalLane="D1D0_0" arrivalPos="85.60" arrivalSpeed="13.31" duration="35.00" routeLength="370.77" waitingTime="0.00" waitingCount="0" stopTime="0.00" timeLoss="7.78" rerouteNo="1" devices="tripinfo_90 routing_90" vType="DEFAULT_VEHTYPE" speedFactor="1.02" vaporized=""/>
    <tripinfo id="59" depart="59.00" departLane="C4D4_0" departPos="5.10" departSpeed="0.00" departDelay="0.00" arrival="128.00" arrivalLane="A4B4_0" arrivalPos="89.60" arrivalSpeed="13.44" duration="69.00" routeLength="660.57" waitingTime="0.00" waitingCount="0" stopTime="0.00" timeLoss="16.84" rerouteNo="1" devices="tripinfo_59 routing_59" vType="DEFAULT_VEHTYPE" speedFactor="0.97" vaporized=""/>
    <tripinfo id="77" depart="77.00" departLane="A3A4_0" departPos="5.10" departSpeed="0.00" departDelay="0.00" arrival="130.00" arrivalLane="B1B0_0" arrivalPos="85.60" arrivalSpeed="13.47" duration="53.00" routeLength="571.31" waitingTime="0.00" waitingCount="0" stopTime="0.00" timeLoss="9.34" rerouteNo="1" devices="tripinfo_77 routing_77" vType="DEFAULT_VEHTYPE" speedFactor="0.98" vaporized=""/>
    <tripinfo id="71" depart="71.00" departLane="B2B1_0" departPos="5.10" departSpeed="0.00" departDelay="0.00" arrival="131.00" arrivalLane="E1D1_0" arrivalPos="85.60" arrivalSpeed="12.82" duration="60.00" routeLength="470.57" waitingTime="5.00" waitingCount="1" stopTime="0.00" timeLoss="24.06" rerouteNo="1" devices="tripinfo_71 routing_71" vType="DEFAULT_VEHTYPE" speedFactor="0.97" vaporized=""/>
    <tripinfo id="75" depart="75.00" departLane="E4E3_0" departPos="5.10" departSpeed="0.00" departDelay="0.00" arrival="131.00" arrivalLane="D0E0_0" arrivalPos="89.60" arrivalSpeed="12.81" duration="56.00" routeLength="574.95" waitingTime="0.00" waitingCount="0" stopTime="0.00" timeLoss="12.03" rerouteNo="1" devices="tripinfo_75 routing_75" vType="DEFAULT_VEHTYPE" speedFactor="0.98" vaporized=""/>
    <tripinfo id="80" depart="82.00" departLane="A2A1_0" departPos="5.10" departSpeed="0.00" departDelay="2.00" arrival="133.00" arrivalLane="D0D1_0" arrivalPos="85.60" arrivalSpeed="13.62" duration="51.00" routeLength="581.64" waitingTime="0.00" waitingCount="0" stopTime="0.00" timeLoss="9.02" rerouteNo="1" devices="tripinfo_80 routing_80" vType="DEFAULT_VEHTYPE" speedFactor="1.03" vaporized=""/>
    <tripinfo id="49" depart="53.00" departLane="E3E4_0" departPos="5.10" departSpeed="0.00" departDelay="4.00" arrival="135.00" arrivalLane="E0E1_0" arrivalPos="89.60" arrivalSpeed="11.36" duration="82.00" routeLength="782.77" waitingTime="0.00" waitingCount="0" stopTime="0.00" timeLoss="12.15" rerouteNo="1" devices="tripinfo_49 routing_49" vType="DEFAULT_VEHTYPE" speedFactor="0.85" vaporized=""/>
    <tripinfo id="84" depart="84.00" departLane="B1B0_0" departPos="5.10" departSpeed="0.00" departDelay="0.00" arrival="138.00" arrivalLane="A3B3_0" arrivalPos="85.60" arrivalSpeed="7.20" duration="54.00" routeLength="565.94" waitingTime="0.00" waitingCount="0" stopTime="0.00" timeLoss="16.75" rerouteNo="1" devices="tripinfo_84 routing_84" vType="DEFAULT_VEHTYPE" speedFactor="1.15" vaporized=""/>
    <tripinfo id="89" depart="94.00" departLane="C0D0_0" departPos="5.10" departSpeed="0.00" departDelay="5.00" arrival="138.00" arrivalLane="C1D1_0" arrivalPos="85.60" arrivalSpeed="13.61" duration="44.00" routeLength="360.03" waitingTime="3.00" waitingCount="1" stopTime="0.00" timeLoss="16.68" rerouteNo="1" devices="tripinfo_89 routing_89" vType="DEFAULT_VEHTYPE" speedFactor="1.02" vaporized=""/>