<?xml version="1.0" encoding="UTF-8"?>

<!-- generated on 2023-10-25 17:07:18 by Eclipse SUMO GUI Version 1.18.0
<configuration xmlns:xsi="http://www.w3.org/2001/XMLSchema-instance" xsi:noNamespaceSchemaLocation="http://sumo.dlr.de/xsd/sumoConfiguration.xsd">

    <input>
        <net-file value="osm.net.xml.gz"/>
        <route-files value="ejbloqueo.rou.xml"/>
        <additional-files value="closededges.add.xml"/>
    </input>

    <output>
        <tripinfo-output value="tripinfo.xml"/>
    </output>

    <processing>
        <ignore-route-errors value="true"/>
        <time-to-teleport value="-1"/>
    </processing>

    <traci_server>
        <remote-port value="57351"/>
    </traci_server>

</configuration>
-->

<tripinfos xmlns:xsi="http://www.w3.org/2001/XMLSchema-instance" xsi:noNamespaceSchemaLocation="http://sumo.dlr.de/xsd/tripinfo_file.xsd">
    <personinfo id="ped20" depart="12.03" type="ped_pedestrian" speedFactor="1.00">
        <walk depart="13.00" departPos="0.00" arrival="59.00" arrivalPos="54.97" duration="46.00" routeLength="57.98" timeLoss="4.33" maxSpeed="1.39"/>
    </personinfo>
    <tripinfo id="veh3" depart="1.00" departLane="854280395_3" departPos="5.10" departSpeed="0.00" departDelay="0.53" arrival="59.00" arrivalLane="1161202416#2_0" arrivalPos="58.80" arrivalSpeed="16.29" duration="58.00" routeLength="664.58" waitingTime="0.00" waitingCount="0" stopTime="0.00" timeLoss="14.27" rerouteNo="1" devices="tripinfo_veh3 routing_veh3" vType="veh_passenger" speedFactor="1.03" vaporized=""/>
    <tripinfo id="veh109" depart="18.00" departLane="124506586#6_0" departPos="5.10" departSpeed="0.00" departDelay="0.87" arrival="64.00" arrivalLane="904172411#0_0" arrivalPos="3.18" arrivalSpeed="7.64" duration="46.00" routeLength="494.14" waitingTime="0.00" waitingCount="0" stopTime="0.00" timeLoss="9.67" rerouteNo="1" devices="tripinfo_veh109 routing_veh109" vType="veh_passenger" speedFactor="1.00" vaporized=""/>
    <tripinfo id="veh29" depart="5.00" departLane="916017996#1_0" departPos="0.20" departSpeed="0.00" departDelay="0.44" arrival="76.00" arrivalLane="569114956#4_1" arrivalPos="36.55" arrivalSpeed="13.47" duration="71.00" routeLength="844.10" waitingTime="0.00" waitingCount="0" stopTime="0.00" timeLoss="9.81" rerouteNo="1" devices="tripinfo_veh29 routing_veh29" vType="veh_passenger" speedFactor="1.01" vaporized=""/>
    <tripinfo id="veh34" depart="6.00" departLane="24713393_1" departPos="5.10" departSpeed="0.00" departDelay="0.66" arrival="77.00" arrivalLane="866747389#0_0" arrivalPos="190.08" arrivalSpeed="16.35" duration="71.00" routeLength="947.89" waitingTime="0.00" waitingCount="0" stopTime="0.00" timeLoss="11.81" rerouteNo="1" devices="tripinfo_veh34 routing_veh34" vType="veh_passenger" speedFactor="1.18" vaporized=""/>
    <tripinfo id="veh196" depart="31.00" departLane="24703741#3_0" departPos="2.70" departSpeed="0.00" departDelay="0.20" arrival="81.00" arrivalLane="-617718993#1_1" arrivalPos="48.19" arrivalSpeed="15.54" duration="50.00" routeLength="628.28" waitingTime="0.00" waitingCount="0" stopTime="0.00" timeLoss="9.44" rerouteNo="1" devices="tripinfo_veh196 routing_veh196" vType="veh_passenger" speedFactor="1.15" vaporized=""/>
    <tripinfo id="veh56" depart="9.00" departLane="618043852#2_2" departPos="5.10" departSpeed="0.00" departDelay="0.20" arrival="82.00" arrivalLane="387049360#1_0" arrivalPos="59.07" arrivalSpeed="16.43" duration="73.00" routeLength="713.19" waitingTime="1.00" waitingCount="1" stopTime="0.00" timeLoss="20.89" rerouteNo="1" devices="tripinfo_veh56 routing_veh56" vType="veh_passenger" speedFactor="0.99" vaporized=""/>
    <personinfo id="ped114" depart="68.57" type="ped_pedestrian" speedFactor="1.11">
        <walk depart="69.00" departPos="0.00" arrival="83.00" arrivalPos="13.27" duration="14.00" routeLength="17.97" timeLoss="2.30" maxSpeed="1.54"/>
    </personinfo>
    <tripinfo id="veh4" depart="1.00" departLane="24858131#2_2" departPos="5.10" departSpeed="0.00" departDelay="0.37" arrival="84.00" arrivalLane="-847324971_0" arrivalPos="52.46" arrivalSpeed="11.46" duration="83.00" routeLength="815.10" waitingTime="0.00" waitingCount="0" stopTime="0.00" timeLoss="10.35" rerouteNo="1" devices="tripinfo_veh4 routing_veh4" vType="veh_passenger" speedFactor="0.83" vaporized=""/>
    <tripinfo id="veh129" depart="21.00" departLane="616813097#4_1" departPos="5.10" departSpeed="0.00" departDelay="0.73" arrival="84.00" arrivalLane="866735729_2" arrivalPos="110.36" arrivalSpeed="14.91" duration="63.00" routeLength="645.42" waitingTime="4.00" waitingCount="1" stopTime="0.00" timeLoss="19.87" rerouteNo="1" devices="tripinfo_veh129 routing_veh129" vType="veh_passenger" speedFactor="1.11" vaporized=""/>
    <tripinfo id="veh64" depart="11.00" departLane="618043852#5_1" departPos="5.10" departSpeed="0.00" departDelay="0.94" arrival="91.00" arrivalLane="1174904588#1_0" arrivalPos="44.39" arrivalSpeed="12.47" duration="80.00" routeLength="648.87" waitingTime="8.00" waitingCount="1" stopTime="0.00" timeLoss="30.74" rerouteNo="1" devices="tripinfo_veh64 routing_veh64" vType="veh_passenger" speedFactor="0.97" vaporized=""/>
    <tripinfo id="veh13" depart="3.00" departLane="743234928#1_1" departPos="0.20" departSpeed="0.00" departDelay="0.96" arrival="94.00" arrivalLane="517139709#2_1" arrivalPos="69.22" arrivalSpeed="12.12" duration="91.00" routeLength="856.15" waitingTime="0.00" waitingCount="0" stopTime="0.00" timeLoss="20.88" rerouteNo="1" devices="tripinfo_veh13 routing_veh13" vType="veh_passenger" speedFactor="0.93" vaporized=""/>
    <tripinfo id="veh63" depart="10.00" departLane="1135303297_1" departPos="5.10" departSpeed="0.00" departDelay="0.10" arrival="96.00" arrivalLane="618043848#7_0" arrivalPos="42.99" arrivalSpeed="13.70" duration="86.00" routeLength="728.51" waitingTime="16.00" waitingCount="2" stopTime="0.00" timeLoss="33.68" rerouteNo="1" devices="tripinfo_veh63 routing_veh63" vType="veh_passenger" speedFactor="1.02" vaporized=""/>
    <tripinfo id="veh228" depart="36.00" departLane="24850282#3_0" departPos="5.10" departSpeed="0.00" departDelay="0.17" arrival="98.00" arrivalLane="-24850200#2_0" arrivalPos="86.01" arrivalSpeed="9.75" duration="62.00" routeLength="421.22" waitingTime="16.00" waitingCount="1" stopTime="0.00" timeLoss="29.28" rerouteNo="1" devices="tripinfo_veh228 routing_veh228" vType="veh_passenger" speedFactor="0.96" vaporized=""/>
    <tripinfo id="veh290" depart="46.00" departLane="618028619#4_1" departPos="5.10" departSpeed="0.00" departDelay="0.42" arrival="100.00" arrivalLane="24847834_0" arrivalPos="146.72" arrivalSpeed="13.33" duration="54.00" routeLength="435.78" waitingTime="5.00" waitingCount="1" stopTime="0.00" timeLoss="20.96" rerouteNo="1" devices="tripinfo_veh290 routing_veh290" vType="veh_passenger" speedFactor="1.01" vaporized=""/>
    <tripinfo id="veh356" depart="56.00" departLane="904261096#5_1" departPos="0.98" departSpeed="0.00" departDelay="0.05" arrival="103.00" arrivalLane="616812020#0_0" arrivalPos="15.88" arrivalSpeed="14.16" duration="47.00" routeLength="365.85" waitingTime="7.00" waitingCount="2" stopTime="0.00" timeLoss="22.24" rerouteNo="1" devices="tripinfo_veh356 routing_veh356" vType="veh_passenger" speedFactor="1.10" vaporized=""/>
    <tripinfo id="veh27" depart="5.00" departLane="176444016#6_2" departPos="5.10" departSpeed="0.00" departDelay="0.76" arrival="104.00" arrivalLane="617831539#6_1" arrivalPos="83.44" arrivalSpeed="15.75" duration="99.00" routeLength="1333.87" waitingTime="0.00" waitingCount="0" stopTime="0.00" timeLoss="15.81" rerouteNo="1" devices="tripinfo_veh27 routing_veh27" vType="veh_passenger" speedFactor="1.18" vaporized=""/>
    <tripinfo id="veh124" depart="20.00" departLane="24850243#2_0" departPos="5.10" departSpeed="0.00" departDelay="0.51" arrival="104.00" arrivalLane="144114924_1" arrivalPos="196.03" arrivalSpeed="16.61" duration="84.00" routeLength="1037.92" waitingTime="0.00" waitingCount="0" stopTime="0.00" timeLoss="21.19" rerouteNo="1" devices="tripinfo_veh124 routing_veh124" vType="veh_passenger" speedFactor="1.23" vaporized=""/>
    <tripinfo id="veh0" depart="0.00" departLane="569114957#2_2" departPos="5.10" departSpeed="0.00" departDelay="0.00" arrival="105.00" arrivalLane="617718993#2_1" arrivalPos="55.32" arrivalSpeed="14.59" duration="105.00" routeLength="1127.19" waitingTime="1.00" waitingCount="1" stopTime="0.00" timeLoss="24.87" rerouteNo="1" devices="tripinfo_veh0 routing_veh0" vType="veh_passenger" speedFactor="1.06" vaporized=""/>
    <tripinfo id="veh292" depart="46.00" departLane="24715603#1_1" departPos="5.10" departSpeed="0.00" departDelay="0.11" arrival="106.00" arrivalLane="1168774908_0" arrivalPos="208.60" arrivalSpeed="12.14" duration="60.00" routeLength="593.68" waitingTime="0.00" waitingCount="0" stopTime="0.00" timeLoss="9.64" rerouteNo="1" devices="tripinfo_veh292 routing_veh292" vType="veh_passenger" speedFactor="0.89" vaporized=""/>
    <tripinfo id="veh314" depart="50.00" departLane="24715534#6_0" departPos="5.10" departSpeed="0.00" departDelay="0.65" arrival="107.00" arrivalLane="24715534#11_0" arrivalPos="62.47" arrivalSpeed="12.84" duration="57.00" routeLength="391.61" waitingTime="13.00" waitingCount="2" stopTime="0.00" timeLoss="26.50" rerouteNo="1" devices="tripinfo_veh314 routing_veh314" vType="veh_passenger" speedFactor="0.95" vaporized=""/>
    <tripinfo id="veh236" depart="38.00" departLane="24850811#2_0" departPos="5.10" departSpeed="0.00" departDelay="0.91" arrival="108.00" arrivalLane="24850270#3_0" arrivalPos="191.09" arrivalSpeed="12.95" duration="70.00" routeLength="747.92" waitingTime="0.00" waitingCount="0" stopTime="0.00" timeLoss="14.05" rerouteNo="1" devices="tripinfo_veh236 routing_veh236" vType="veh_passenger" speedFactor="0.98" vaporized=""/>
    <tripinfo id="veh415" depart="66.00" departLane="24715664#0_1" departPos="5.10" departSpeed="0.00" departDelay="0.78" arrival="111.00" arrivalLane="24715664#6_1" arrivalPos="51.53" arrivalSpeed="13.44" duration="45.00" routeLength="421.53" waitingTime="7.00" waitingCount="1" stopTime="0.00" timeLoss="15.32" rerouteNo="1" devices="tripinfo_veh415 routing_veh415" vType="veh_passenger" speedFactor="1.04" vaporized=""/>
    <tripinfo id="veh84" depart="14.00" departLane="24858131#3_0" departPos="5.10" departSpeed="0.00" departDelay="0.80" arrival="113.00" arrivalLane="24859096#0_0" arrivalPos="8.19" arrivalSpeed="8.12" duration="99.00" routeLength="1006.47" waitingTime="1.00" waitingCount="1" stopTime="0.00" timeLoss="18.43" rerouteNo="1" devices="tripinfo_veh84 routing_veh84" vType="veh_passenger" speedFactor="0.92" vaporized=""/>
    <tripinfo id="veh94" depart="15.00" departLane="932642940_1" departPos="5.10" departSpeed="0.00" departDelay="0.23" arrival="114.00" arrivalLane="688753795#7_0" arrivalPos="26.56" arrivalSpeed="13.96" duration="99.00" routeLength="1134.01" waitingTime="0.00" waitingCount="0" stopTime="0.00" timeLoss="20.57" rerouteNo="1" devices="tripinfo_veh94 routing_veh94" vType="veh_passenger" speedFactor="1.07" vaporized=""/>
    <tripinfo id="veh167" depart="27.00" departLane="903950051_2" departPos="5.10" departSpeed="0.00" departDelay="0.76" arrival="114.00" arrivalLane="24836098#4_1" arrivalPos="34.64" arrivalSpeed="12.51" duration="87.00" routeLength="854.42" waitingTime="0.00" waitingCount="0" stopTime="0.00" timeLoss="16.39" rerouteNo="1" devices="tripinfo_veh167 routing_veh167" vType="veh_passenger" speedFactor="0.92" vaporized=""/>
    <tripinfo id="veh421" depart="67.00" departLane="24715534#9_4" departPos="5.10" departSpeed="0.00" departDelay="0.84" arrival="114.00" arrivalLane="688764080#3_0" arrivalPos="23.88" arrivalSpeed="12.23" duration="47.00" routeLength="452.11" waitingTime="0.00" waitingCount="0" stopTime="0.00" timeLoss="12.28" rerouteNo="1" devices="tripinfo_veh421 routing_veh421" vType="veh_passenger" speedFactor="0.94" vaporized=""/>
    <tripinfo id="veh275" depart="44.00" departLane="688753795#3_2" departPos="5.10" departSpeed="0.00" departDelay="0.78" arrival="117.00" arrivalLane="1161202416#2_0" arrivalPos="58.80" arrivalSpeed="19.28" duration="73.00" routeLength="1200.01" waitingTime="0.00" waitingCount="0" stopTime="0.00" timeLoss="9.45" rerouteNo="1" devices="tripinfo_veh275 routing_veh275" vType="veh_passenger" speedFactor="1.21" vaporized=""/>
    <tripinfo id="veh130" depart="21.00" departLane="1195939076#0_0" departPos="5.10" departSpeed="16.17" departDelay="0.57" arrival="119.00" arrivalLane="1164605692#1_0" arrivalPos="17.63" arrivalSpeed="15.08" duration="98.00" routeLength="1166.63" waitingTime="0.00" waitingCount="0" stopTime="0.00" timeLoss="24.03" rerouteNo="1" devices="tripinfo_veh130 routing_veh130" vType="veh_passenger" speedFactor="1.16" vaporized=""/>
    <tripinfo id="veh72" depart="12.00" departLane="1168452026#1_2" departPos="5.10" departSpeed="0.00" departDelay="0.68" arrival="120.00" arrivalLane="24715534#10_0" arrivalPos="31.30" arrivalSpeed="12.65" duration="108.00" routeLength="1052.17" waitingTime="8.00" waitingCount="1" stopTime="0.00" timeLoss="30.09" rerouteNo="1" devices="tripinfo_veh72 routing_veh72" vType="veh_passenger" speedFactor="1.00" vaporized=""/>
    <tripinfo id="veh28" depart="5.00" departLane="158032457#3_0" departPos="5.10" departSpeed="0.00" departDelay="0.60" arrival="121.00" arrivalLane="24850282#6_0" arrivalPos="52.60" arrivalSpeed="15.17" duration="116.00" routeLength="1331.15" waitingTime="0.00" waitingCount="0" stopTime="0.00" timeLoss="29.98" rerouteNo="1" devices="tripinfo_veh28 routing_veh28" vType="veh_passenger" speedFactor="1.15" vaporized=""/>
    <tripinfo id="veh144" depart="23.00" departLane="688753795#7_0" departPos="5.10" departSpeed="0.00" departDelay="0.37" arrival="123.00" arrivalLane="4780792#7_1" arrivalPos="81.01" arrivalSpeed="15.65" duration="100.00" routeLength="1132.46" waitingTime="10.00" waitingCount="1" stopTime="0.00" timeLoss="26.69" rerouteNo="1" devices="tripinfo_veh144 routing_veh144" vType="veh_passenger" speedFactor="1.14" vaporized=""/>
    <tripinfo id="veh439" depart="69.00" departLane="24836323#2_1" departPos="5.10" departSpeed="0.00" departDelay="0.01" arrival="124.00" arrivalLane="618028619#4_1" arrivalPos="95.03" arrivalSpeed="15.98" duration="55.00" routeLength="693.74" waitingTime="0.00" waitingCount="0" stopTime="0.00" timeLoss="13.27" rerouteNo="1" devices="tripinfo_veh439 routing_veh439" vType="veh_passenger" speedFactor="1.24" vaporized=""/>
    <tripinfo id="veh148" depart="24.00" departLane="856041979#0_1" departPos="5.10" departSpeed="0.00" departDelay="0.74" arrival="128.00" arrivalLane="24713863#1_1" arrivalPos="113.94" arrivalSpeed="13.65" duration="104.00" routeLength="1273.53" waitingTime="0.00" waitingCount="0" stopTime="0.00" timeLoss="16.28" rerouteNo="1" devices="tripinfo_veh148 routing_veh148" vType="veh_passenger" speedFactor="1.05" vaporized=""/>
    <tripinfo id="veh208" depart="33.00" departLane="616921713#1_3" departPos="5.10" departSpeed="0.00" departDelay="0.31" arrival="129.00" arrivalLane="916017996#1_0" arrivalPos="0.20" arrivalSpeed="11.92" duration="96.00" routeLength="1111.68" waitingTime="0.00" waitingCount="0" stopTime="0.00" timeLoss="23.51" rerouteNo="1" devices="tripinfo_veh208 routing_veh208" vType="veh_passenger" speedFactor="1.15" vaporized=""/>
    <tripinfo id="veh340" depart="54.00" departLane="1161950334#0_2" departPos="0.20" departSpeed="0.00" departDelay="0.57" arrival="129.00" arrivalLane="904172411#1_1" arrivalPos="2.48" arrivalSpeed="11.83" duration="75.00" routeLength="873.25" waitingTime="0.00" waitingCount="0" stopTime="0.00" timeLoss="16.25" rerouteNo="1" devices="tripinfo_veh340 routing_veh340" vType="veh_passenger" speedFactor="1.10" vaporized=""/>
    <tripinfo id="veh419" depart="66.00" departLane="24850149#0_1" departPos="5.10" departSpeed="0.00" departDelay="0.15" arrival="131.00" arrivalLane="4818253#2_1" arrivalPos="74.43" arrivalSpeed="13.47" duration="65.00" routeLength="650.48" waitingTime="1.00" waitingCount="1" stopTime="0.00" timeLoss="16.46" rerouteNo="1" devices="tripinfo_veh419 routing_veh419" vType="veh_passenger" speedFactor="0.99" vaporized=""/>
    <tripinfo id="veh393" depart="62.00" departLane="617831539#1_2" departPos="5.10" departSpeed="0.00" departDelay="0.24" arrival="133.00" arrivalLane="24850888#3_1" arrivalPos="80.61" arrivalSpeed="5.31" duration="71.00" routeLength="718.80" waitingTime="0.00" waitingCount="0" stopTime="0.00" timeLoss="26.15" rerouteNo="1" devices="tripinfo_veh393 routing_veh393" vType="veh_passenger" speedFactor="1.20" vaporized=""/>
    <tripinfo id="veh169" depart="27.00" departLane="617887678#0_1" departPos="5.10" departSpeed="0.00" departDelay="0.44" arrival="134.00" arrivalLane="24846907#15_1" arrivalPos="245.96" arrivalSpeed="12.82" duration="107.00" routeLength="1237.72" waitingTime="0.00" waitingCount="0" stopTime="0.00" timeLoss="13.34" rerouteNo="1" devices="tripinfo_veh169 routing_veh169" vType="veh_passenger" speedFactor="0.97" vaporized=""/>
    <tripinfo id="veh260" depart="41.00" departLane="1162729330#2_2" departPos="5.10" departSpeed="0.00" departDelay="0.14" arrival="135.00" arrivalLane="618043858#3_0" arrivalPos="80.27" arrivalSpeed="12.39" duration="94.00" routeLength="1026.58" waitingTime="0.00" waitingCount="0" stopTime="0.00" timeLoss="15.16" rerouteNo="1" devices="tripinfo_veh260 routing_veh260" vType="veh_passenger" speedFactor="0.96" vaporized=""/>
    <tripinfo id="veh276" depart="46.00" departLane="854269187#0_0" departPos="5.10" departSpeed="0.00" departDelay="2.63" arrival="135.00" arrivalLane="24715534#7_0" arrivalPos="103.12" arrivalSpeed="15.16" duration="89.00" routeLength="1084.16" waitingTime="0.00" waitingCount="0" stopTime="0.00" timeLoss="19.41" rerouteNo="1" devices="tripinfo_veh276 routing_veh276" vType="veh_passenger" speedFactor="1.15" vaporized=""/>
    <tripinfo id="veh384" depart="61.00" departLane="4780792#13_1" departPos="5.10" departSpeed="0.00" departDelay="0.65" arrival="136.00" arrivalLane="24715534#15_1" arrivalPos="88.61" arrivalSpeed="15.10" duration="75.00" routeLength="894.07" waitingTime="0.00" waitingCount="0" stopTime="0.00" timeLoss="19.05" rerouteNo="1" devices="tripinfo_veh384 routing_veh384" vType="veh_passenger" speedFactor="1.17" vaporized=""/>
    <tripinfo id="veh133" depart="21.00" departLane="617718973#5_2" departPos="5.10" departSpeed="0.00" departDelay="0.10" arrival="137.00" arrivalLane="24703903#3_1" arrivalPos="89.42" arrivalSpeed="15.52" duration="116.00" routeLength="1388.22" waitingTime="0.00" waitingCount="0" stopTime="0.00" timeLoss="26.61" rerouteNo="1" devices="tripinfo_veh133 routing_veh133" vType="veh_passenger" speedFactor="1.14" vaporized=""/>
    <tripinfo id="veh281" depart="45.00" departLane="616927356#1_2" departPos="0.20" departSpeed="0.00" departDelay="0.84" arrival="137.00" arrivalLane="24836244#0_0" arrivalPos="238.42" arrivalSpeed="11.56" duration="92.00" routeLength="789.75" waitingTime="1.00" waitingCount="1" stopTime="0.00" timeLoss="25.17" rerouteNo="1" devices="tripinfo_veh281 routing_veh281" vType="veh_passenger" speedFactor="0.87" vaporized=""/>
    <tripinfo id="veh466" depart="74.00" departLane="867017412#1_0" departPos="5.10" departSpeed="0.00" departDelay="0.77" arrival="137.00" arrivalLane="24857826#2_0" arrivalPos="61.32" arrivalSpeed="12.56" duration="63.00" routeLength="644.57" waitingTime="0.00" waitingCount="0" stopTime="0.00" timeLoss="14.99" rerouteNo="1" devices="tripinfo_veh466 routing_veh466" vType="veh_passenger" speedFactor="0.99" vaporized=""/>
    <tripinfo id="veh249" depart="40.00" departLane="616812019#2_0" departPos="5.10" departSpeed="0.00" departDelay="0.87" arrival="142.00" arrivalLane="618045930#2_3" arrivalPos="57.12" arrivalSpeed="5.25" duration="102.00" routeLength="782.66" waitingTime="18.00" waitingCount="2" stopTime="0.00" timeLoss="44.08" rerouteNo="1" devices="tripinfo_veh249 routing_veh249" vType="veh_passenger" speedFactor="1.02" vaporized=""/>
    <tripinfo id="veh113" depart="18.00" departLane="854280393_1" departPos="5.10" departSpeed="0.00" departDelay="0.24" arrival="143.00" arrivalLane="24715534#8_0" arrivalPos="55.98" arrivalSpeed="12.80" duration="125.00" routeLength="1421.70" waitingTime="1.00" waitingCount="1" stopTime="0.00" timeLoss="30.65" rerouteNo="1" devices="tripinfo_veh113 routing_veh113" vType="veh_passenger" speedFactor="1.10" vaporized=""/>
    <tripinfo id="veh233" depart="37.00" departLane="24714067#2_1" departPos="5.10" departSpeed="0.00" departDelay="0.38" arrival="144.00" arrivalLane="24715388_1" arrivalPos="74.87" arrivalSpeed="13.84" duration="107.00" routeLength="795.34" waitingTime="19.00" waitingCount="3" stopTime="0.00" timeLoss="48.62" rerouteNo="1" devices="tripinfo_veh233 routing_veh233" vType="veh_passenger" speedFactor="1.04" vaporized=""/>
    <tripinfo id="veh70" depart="11.00" departLane="922697092#1_1" departPos="0.20" departSpeed="0.00" departDelay="0.00" arrival="145.00" arrivalLane="569114957#6_0" arrivalPos="0.20" arrivalSpeed="14.35" duration="134.00" routeLength="870.38" waitingTime="46.00" waitingCount="3" stopTime="0.00" timeLoss="75.07" rerouteNo="1" devices="tripinfo_veh70 routing_veh70" vType="veh_passenger" speedFactor="1.09" vaporized=""/>
    <tripinfo id="veh524" depart="84.00" departLane="617719001#1_0" departPos="5.10" departSpeed="0.00" departDelay="1.65" arrival="146.00" arrivalLane="904255515_0" arrivalPos="204.00" arrivalSpeed="11.80" duration="62.00" routeLength="516.03" waitingTime="0.00" waitingCount="0" stopTime="0.00" timeLoss="18.39" rerouteNo="1" devices="tripinfo_veh524 routing_veh524" vType="veh_passenger" speedFactor="0.93" vaporized=""/>
    <tripinfo id="veh316" depart="50.00" departLane="24858698#4_1" departPos="5.10" departSpeed="0.00" departDelay="0.34" arrival="149.00" arrivalLane="845518111#1_1" arrivalPos="0.20" arrivalSpeed="12.97" duration="99.00" routeLength="1058.63" waitingTime="1.00" waitingCount="1" stopTime="0.00" timeLoss="26.43" rerouteNo="1" devices="tripinfo_veh316 routing_veh316" vType="veh_passenger" speedFactor="1.08" vaporized=""/>
    <tripinfo id="veh488" depart="77.00" departLane="616813097#2_1" departPos="5.10" departSpeed="0.00" departDelay="0.31" arrival="150.00" arrivalLane="618098742#0_0" arrivalPos="87.72" arrivalSpeed="13.05" duration="73.00" routeLength="818.87" waitingTime="0.00" waitingCount="0" stopTime="0.00" timeLoss="10.82" rerouteNo="1" devices="tripinfo_veh488 routing_veh488" vType="veh_passenger" speedFactor="0.97" vaporized=""/>
    <tripinfo id="veh517" depart="82.00" departLane="688753795#4_2" departPos="5.10" departSpeed="0.00" departDelay="0.75" arrival="150.00" arrivalLane="1161952787#1_1" arrivalPos="95.33" arrivalSpeed="12.37" duration="68.00" routeLength="778.60" waitingTime="0.00" waitingCount="0" stopTime="0.00" timeLoss="11.06" rerouteNo="1" devices="tripinfo_veh517 routing_veh517" vType="veh_passenger" speedFactor="0.92" vaporized=""/>
    <tripinfo id="veh115" depart="19.00" departLane="24857826#1_0" departPos="5.10" departSpeed="0.00" departDelay="0.93" arrival="155.00" arrivalLane="4780792#8_1" arrivalPos="23.12" arrivalSpeed="13.77" duration="136.00" routeLength="1355.85" waitingTime="11.00" waitingCount="2" stopTime="0.00" timeLoss="42.18" rerouteNo="1" devices="tripinfo_veh115 routing_veh115" vType="veh_passenger" speedFactor="1.06" vaporized=""/>
    <tripinfo id="veh6" depart="1.00" departLane="-618053641_0" departPos="5.10" departSpeed="0.00" departDelay="0.06" arrival="158.00" arrivalLane="24703741#6_1" arrivalPos="0.20" arrivalSpeed="12.28" duration="157.00" routeLength="1479.47" waitingTime="2.00" waitingCount="2" stopTime="0.00" timeLoss="32.26" rerouteNo="1" devices="tripinfo_veh6 routing_veh6" vType="veh_passenger" speedFactor="0.89" vaporized=""/>
    <tripinfo id="veh171" depart="27.00" departLane="24850668#3_0" departPos="5.10" departSpeed="0.00" departDelay="0.13" arrival="158.00" arrivalLane="4780792#13_2" arrivalPos="88.23" arrivalSpeed="11.85" duration="131.00" routeLength="1406.24" waitingTime="0.00" waitingCount="0" stopTime="0.00" timeLoss="16.74" rerouteNo="1" devices="tripinfo_veh171 routing_veh171" vType="veh_passenger" speedFactor="0.90" vaporized=""/>
    <tripinfo id="veh537" depart="85.00" departLane="24850065#0_0" departPos="5.10" departSpeed="14.56" departDelay="0.61" arrival="159.00" arrivalLane="-24850200#3_0" arrivalPos="74.55" arrivalSpeed="14.14" duration="74.00" routeLength="961.73" waitingTime="0.00" waitingCount="0" stopTime="0.00" timeLoss="7.19" rerouteNo="1" devices="tripinfo_veh537 routing_veh537" vType="veh_passenger" speedFactor="1.05" vaporized=""/>
    <tripinfo id="veh143" depart="23.00" departLane="-856116497#2_0" departPos="5.10" departSpeed="0.00" departDelay="0.53" arrival="160.00" arrivalLane="425206429_0" arrivalPos="91.94" arrivalSpeed="11.72" duration="137.00" routeLength="1440.90" waitingTime="0.00" waitingCount="0" stopTime="0.00" timeLoss="19.18" rerouteNo="1" devices="tripinfo_veh143 routing_veh143" vType="veh_passenger" speedFactor="0.91" vaporized=""/>
    <tripinfo id="veh155" depart="25.00" departLane="24847791#1_0" departPos="5.10" departSpeed="0.00" departDelay="0.64" arrival="160.00" arrivalLane="866465092_1" arrivalPos="71.66" arrivalSpeed="11.87" duration="135.00" routeLength="1285.28" waitingTime="4.00" waitingCount="1" stopTime="0.00" timeLoss="29.80" rerouteNo="1" devices="tripinfo_veh155 routing_veh155" vType="veh_passenger" speedFactor="0.89" vaporized=""/>
    <tripinfo id="veh599" depart="95.00" departLane="302116347#0_1" departPos="2.00" departSpeed="0.00" departDelay="0.86" arrival="160.00" arrivalLane="176477845#2_1" arrivalPos="77.69" arrivalSpeed="14.54" duration="65.00" routeLength="822.34" waitingTime="0.00" waitingCount="0" stopTime="0.00" timeLoss="8.30" rerouteNo="1" devices="tripinfo_veh599 routing_veh599" vType="veh_passenger" speedFactor="1.06" vaporized=""/>
    <tripinfo id="veh126" depart="20.00" departLane="569114952#1_1" departPos="0.20" departSpeed="0.00" departDelay="0.20" arrival="161.00" arrivalLane="916017996#0_0" arrivalPos="0.20" arrivalSpeed="9.88" duration="141.00" routeLength="656.53" waitingTime="78.00" waitingCount="3" stopTime="0.00" timeLoss="96.95" rerouteNo="1" devices="tripinfo_veh126 routing_veh126" vType="veh_passenger" speedFactor="1.12" vaporized=""/>
    <tripinfo id="veh152" depart="24.00" departLane="846008894#1_0" departPos="5.10" departSpeed="0.00" departDelay="0.11" arrival="162.00" arrivalLane="904259094_2" arrivalPos="246.51" arrivalSpeed="12.08" duration="138.00" routeLength="1619.73" waitingTime="0.00" waitingCount="0" stopTime="0.00" timeLoss="12.24" rerouteNo="1" devices="tripinfo_veh152 routing_veh152" vType="veh_passenger" speedFactor="0.94" vaporized=""/>
    <tripinfo id="veh216" depart="34.00" departLane="618043852#5_2" departPos="5.10" departSpeed="0.00" departDelay="0.05" arrival="162.00" arrivalLane="352403336#3_1" arrivalPos="20.08" arrivalSpeed="13.28" duration="128.00" routeLength="1412.42" waitingTime="1.00" waitingCount="1" stopTime="0.00" timeLoss="22.56" rerouteNo="1" devices="tripinfo_veh216 routing_veh216" vType="veh_passenger" speedFactor="0.99" vaporized=""/>
    <tripinfo id="veh360" depart="57.00" departLane="618043852#0_2" departPos="5.10" departSpeed="0.00" departDelay="0.42" arrival="162.00" arrivalLane="24703903#3_1" arrivalPos="89.42" arrivalSpeed="12.88" duration="105.00" routeLength="1143.85" waitingTime="0.00" waitingCount="0" stopTime="0.00" timeLoss="19.68" rerouteNo="1" devices="tripinfo_veh360 routing_veh360" vType="veh_passenger" speedFactor="0.99" vaporized=""/>
    <tripinfo id="veh289" depart="46.00" departLane="361358030#8_1" departPos="5.10" departSpeed="0.00" departDelay="0.58" arrival="163.00" arrivalLane="24858164#2_2" arrivalPos="55.90" arrivalSpeed="13.48" duration="117.00" routeLength="1264.01" waitingTime="1.00" waitingCount="1" stopTime="0.00" timeLoss="24.95" rerouteNo="1" devices="tripinfo_veh289 routing_veh289" vType="veh_passenger" speedFactor="1.02" vaporized=""/>
    <tripinfo id="veh304" depart="48.00" departLane="846008894#6_0" departPos="5.10" departSpeed="0.00" departDelay="0.22" arrival="164.00" arrivalLane="24936670_0" arrivalPos="347.03" arrivalSpeed="10.94" duration="116.00" routeLength="1068.96" waitingTime="4.00" waitingCount="1" stopTime="0.00" timeLoss="20.26" rerouteNo="1" devices="tripinfo_veh304 routing_veh304" vType="veh_passenger" speedFactor="0.82" vaporized=""/>
    <personinfo id="ped227" depart="136.55" type="ped_pedestrian" speedFactor="1.15">
        <walk depart="137.00" departPos="0.00" arrival="165.00" arrivalPos="5.51" duration="28.00" routeLength="39.71" timeLoss="3.24" maxSpeed="1.60"/>
    </personinfo>
    <tripinfo id="veh58" depart="10.00" departLane="-1129779399_1" departPos="5.10" departSpeed="0.00" departDelay="0.88" arrival="167.00" arrivalLane="24847028#1_1" arrivalPos="67.61" arrivalSpeed="11.54" duration="157.00" routeLength="1377.03" waitingTime="3.00" waitingCount="2" stopTime="0.00" timeLoss="30.44" rerouteNo="1" devices="tripinfo_veh58 routing_veh58" vType="veh_passenger" speedFactor="0.88" vaporized=""/>
    <tripinfo id="veh73" depart="12.00" departLane="24849974#5_1" departPos="5.10" departSpeed="0.00" departDelay="0.53" arrival="167.00" arrivalLane="4818253#3_1" arrivalPos="60.39" arrivalSpeed="13.63" duration="155.00" routeLength="948.45" waitingTime="50.00" waitingCount="3" stopTime="0.00" timeLoss="82.12" rerouteNo="1" devices="tripinfo_veh73 routing_veh73" vType="veh_passenger" speedFactor="1.02" vaporized=""/>