<?xml version="1.0" encoding="UTF-8"?>

<!-- generated on 2024-10-28 16:59:07 by Eclipse SUMO GUI Version v1_19_0+0016-8f48a0f57b6
<configuration xmlns:xsi="http://www.w3.org/2001/XMLSchema-instance" xsi:noNamespaceSchemaLocation="http://sumo.dlr.de/xsd/sumoConfiguration.xsd">

    <input>
        <net-file value="osm.net.xml.gz"/>
        <route-files value="ejbloqueo.rou.xml"/>
        <additional-files value="closededges.add.xml, caminables.add.xml"/>
    </input>

    <output>
        <tripinfo-output value="tripinfo.xml"/>
    </output>

    <processing>
        <ignore-route-errors value="true"/>
        <time-to-teleport value="-1"/>
        <pedestrian.model value="jupedsim"/>
    </processing>

    <traci_server>
        <remote-port value="49912"/>
    </traci_server>

</configuration>
-->

<tripinfos xmlns:xsi="http://www.w3.org/2001/XMLSchema-instance" xsi:noNamespaceSchemaLocation="http://sumo.dlr.de/xsd/tripinfo_file.xsd">
    <tripinfo id="veh3" depart="1.00" departLane="854280395_3" departPos="5.10" departSpeed="0.00" departDelay="0.53" arrival="58.00" arrivalLane="1161202416#2_0" arrivalPos="58.80" arrivalSpeed="16.74" duration="57.00" routeLength="664.58" waitingTime="0.00" waitingCount="0" stopTime="0.00" timeLoss="13.24" rerouteNo="1" devices="tripinfo_veh3 routing_veh3" vType="veh_passenger" speedFactor="1.03" vaporized=""/>
